ITEM: TIMESTEP
0
ITEM: NUMBER OF ATOMS
204
ITEM: BOX BOUNDS
0.00000000 20.20431687
0.00000000 9.72080649
-1.0 1.0
ITEM: ATOMS
0 1 0.00000000 0.00000000 0.0
1 5 1.12246205 0.00000000 0.0
2 5 2.24492410 0.00000000 0.0
3 5 3.36738614 0.00000000 0.0
4 5 4.48984819 0.00000000 0.0
5 5 5.61231024 0.00000000 0.0
6 5 6.73477229 0.00000000 0.0
7 5 7.85723434 0.00000000 0.0
8 5 8.97969639 0.00000000 0.0
9 5 10.10215843 0.00000000 0.0
10 5 11.22462048 0.00000000 0.0
11 5 12.34708253 0.00000000 0.0
12 5 13.46954458 0.00000000 0.0
13 5 14.59200663 0.00000000 0.0
14 5 15.71446868 0.00000000 0.0
15 5 16.83693072 0.00000000 0.0
16 5 17.95939277 0.00000000 0.0
17 5 19.08185482 0.00000000 0.0
18 1 20.20431687 0.00000000 0.0
19 5 0.56123102 0.97208065 0.0
20 5 1.68369307 0.97208065 0.0
21 5 2.80615512 0.97208065 0.0
22 5 3.92861717 0.97208065 0.0
23 5 5.05107922 0.97208065 0.0
24 5 6.17354127 0.97208065 0.0
25 5 7.29600331 0.97208065 0.0
26 5 8.41846536 0.97208065 0.0
27 5 9.54092741 0.97208065 0.0
28 5 10.66338946 0.97208065 0.0
29 5 11.78585151 0.97208065 0.0
30 5 12.90831356 0.97208065 0.0
31 5 14.03077560 0.97208065 0.0
32 5 15.15323765 0.97208065 0.0
33 5 16.27569970 0.97208065 0.0
34 5 17.39816175 0.97208065 0.0
35 5 18.52062380 0.97208065 0.0
36 5 19.64308585 0.97208065 0.0
37 5 0.00000000 1.94416130 0.0
38 5 1.12246205 1.94416130 0.0
39 5 2.24492410 1.94416130 0.0
40 5 3.36738614 1.94416130 0.0
41 5 4.48984819 1.94416130 0.0
42 5 5.61231024 1.94416130 0.0
43 5 6.73477229 1.94416130 0.0
44 5 7.85723434 1.94416130 0.0
45 5 8.97969639 1.94416130 0.0
46 5 10.10215843 1.94416130 0.0
47 5 11.22462048 1.94416130 0.0
48 5 12.34708253 1.94416130 0.0
49 5 13.46954458 1.94416130 0.0
50 5 14.59200663 1.94416130 0.0
51 5 15.71446868 1.94416130 0.0
52 5 16.83693072 1.94416130 0.0
53 5 17.95939277 1.94416130 0.0
54 5 19.08185482 1.94416130 0.0
55 5 20.20431687 1.94416130 0.0
56 5 0.56123102 2.91624195 0.0
57 5 1.68369307 2.91624195 0.0
58 5 2.80615512 2.91624195 0.0
59 5 3.92861717 2.91624195 0.0
60 5 5.05107922 2.91624195 0.0
61 5 6.17354127 2.91624195 0.0
62 5 7.29600331 2.91624195 0.0
63 5 8.41846536 2.91624195 0.0
64 5 9.54092741 2.91624195 0.0
65 5 10.66338946 2.91624195 0.0
66 5 11.78585151 2.91624195 0.0
67 3 12.90831356 2.91624195 0.0
68 5 14.03077560 2.91624195 0.0
69 5 15.15323765 2.91624195 0.0
70 5 16.27569970 2.91624195 0.0
71 5 17.39816175 2.91624195 0.0
72 5 18.52062380 2.91624195 0.0
73 5 19.64308585 2.91624195 0.0
74 5 0.00000000 3.88832259 0.0
75 5 1.12246205 3.88832259 0.0
76 5 2.24492410 3.88832259 0.0
77 5 3.36738614 3.88832259 0.0
78 5 4.48984819 3.88832259 0.0
79 5 5.61231024 3.88832259 0.0
80 5 6.73477229 3.88832259 0.0
81 5 7.85723434 3.88832259 0.0
82 5 8.97969639 3.88832259 0.0
83 5 10.10215843 3.88832259 0.0
84 5 11.22462048 3.88832259 0.0
85 5 12.34708253 3.88832259 0.0
86 5 13.46954458 3.88832259 0.0
87 5 14.59200663 3.88832259 0.0
88 5 15.71446868 3.88832259 0.0
89 5 16.83693072 3.88832259 0.0
90 5 17.95939277 3.88832259 0.0
91 5 19.08185482 3.88832259 0.0
92 5 20.20431687 3.88832259 0.0
93 5 0.56123102 4.86040324 0.0
94 5 1.68369307 4.86040324 0.0
95 5 2.80615512 4.86040324 0.0
96 5 3.92861717 4.86040324 0.0
97 5 5.05107922 4.86040324 0.0
98 5 6.17354127 4.86040324 0.0
99 5 7.29600331 4.86040324 0.0
100 5 8.41846536 4.86040324 0.0
101 5 9.54092741 4.86040324 0.0
102 5 10.66338946 4.86040324 0.0
103 5 11.78585151 4.86040324 0.0
104 5 12.90831356 4.86040324 0.0
105 5 14.03077560 4.86040324 0.0
106 5 15.15323765 4.86040324 0.0
107 5 16.27569970 4.86040324 0.0
108 5 17.39816175 4.86040324 0.0
109 5 18.52062380 4.86040324 0.0
110 5 19.64308585 4.86040324 0.0
111 5 0.00000000 5.83248389 0.0
112 5 1.12246205 5.83248389 0.0
113 5 2.24492410 5.83248389 0.0
114 5 3.36738614 5.83248389 0.0
115 5 4.48984819 5.83248389 0.0
116 5 5.61231024 5.83248389 0.0
117 3 6.73477229 5.83248389 0.0
118 5 7.85723434 5.83248389 0.0
119 5 8.97969639 5.83248389 0.0
120 5 10.10215843 5.83248389 0.0
121 5 11.22462048 5.83248389 0.0
122 5 12.34708253 5.83248389 0.0
123 5 13.46954458 5.83248389 0.0
124 5 14.59200663 5.83248389 0.0
125 5 15.71446868 5.83248389 0.0
126 5 16.83693072 5.83248389 0.0
127 5 17.95939277 5.83248389 0.0
128 5 19.08185482 5.83248389 0.0
129 5 20.20431687 5.83248389 0.0
130 5 0.56123102 6.80456454 0.0
131 5 1.68369307 6.80456454 0.0
132 5 2.80615512 6.80456454 0.0
133 5 3.92861717 6.80456454 0.0
134 5 5.05107922 6.80456454 0.0
135 5 6.17354127 6.80456454 0.0
136 5 7.29600331 6.80456454 0.0
137 5 8.41846536 6.80456454 0.0
138 5 9.54092741 6.80456454 0.0
139 5 10.66338946 6.80456454 0.0
140 5 11.78585151 6.80456454 0.0
141 5 12.90831356 6.80456454 0.0
142 5 14.03077560 6.80456454 0.0
143 5 15.15323765 6.80456454 0.0
144 5 16.27569970 6.80456454 0.0
145 5 17.39816175 6.80456454 0.0
146 5 18.52062380 6.80456454 0.0
147 5 19.64308585 6.80456454 0.0
148 5 0.00000000 7.77664519 0.0
149 5 1.12246205 7.77664519 0.0
150 5 2.24492410 7.77664519 0.0
151 5 3.36738614 7.77664519 0.0
152 5 4.48984819 7.77664519 0.0
153 5 5.61231024 7.77664519 0.0
154 5 6.73477229 7.77664519 0.0
155 5 7.85723434 7.77664519 0.0
156 5 8.97969639 7.77664519 0.0
157 5 10.10215843 7.77664519 0.0
158 5 11.22462048 7.77664519 0.0
159 5 12.34708253 7.77664519 0.0
160 5 13.46954458 7.77664519 0.0
161 5 14.59200663 7.77664519 0.0
162 5 15.71446868 7.77664519 0.0
163 5 16.83693072 7.77664519 0.0
164 5 17.95939277 7.77664519 0.0
165 5 19.08185482 7.77664519 0.0
166 5 20.20431687 7.77664519 0.0
167 5 0.56123102 8.74872584 0.0
168 5 1.68369307 8.74872584 0.0
169 5 2.80615512 8.74872584 0.0
170 5 3.92861717 8.74872584 0.0
171 5 5.05107922 8.74872584 0.0
172 5 6.17354127 8.74872584 0.0
173 5 7.29600331 8.74872584 0.0
174 5 8.41846536 8.74872584 0.0
175 5 9.54092741 8.74872584 0.0
176 5 10.66338946 8.74872584 0.0
177 5 11.78585151 8.74872584 0.0
178 5 12.90831356 8.74872584 0.0
179 5 14.03077560 8.74872584 0.0
180 5 15.15323765 8.74872584 0.0
181 5 16.27569970 8.74872584 0.0
182 5 17.39816175 8.74872584 0.0
183 5 18.52062380 8.74872584 0.0
184 5 19.64308585 8.74872584 0.0
185 1 0.00000000 9.72080649 0.0
186 5 1.12246205 9.72080649 0.0
187 5 2.24492410 9.72080649 0.0
188 5 3.36738614 9.72080649 0.0
189 5 4.48984819 9.72080649 0.0
190 5 5.61231024 9.72080649 0.0
191 5 6.73477229 9.72080649 0.0
192 5 7.85723434 9.72080649 0.0
193 5 8.97969639 9.72080649 0.0
194 5 10.10215843 9.72080649 0.0
195 5 11.22462048 9.72080649 0.0
196 5 12.34708253 9.72080649 0.0
197 5 13.46954458 9.72080649 0.0
198 5 14.59200663 9.72080649 0.0
199 5 15.71446868 9.72080649 0.0
200 5 16.83693072 9.72080649 0.0
201 5 17.95939277 9.72080649 0.0
202 5 19.08185482 9.72080649 0.0
203 1 20.20431687 9.72080649 0.0
ITEM: TIMESTEP
1
ITEM: NUMBER OF ATOMS
204
ITEM: BOX BOUNDS
0.00000000 20.20431687
0.00000000 9.72080649
-1.0 1.0
ITEM: ATOMS
0 1 0.00000000 0.00000000 0.0
1 5 1.11998386 0.00516310 0.0
2 5 2.23996772 0.01032620 0.0
3 5 3.35995158 0.01548930 0.0
4 5 4.47993544 0.02065239 0.0
5 5 5.59991931 0.02581549 0.0
6 5 6.71990317 0.03097859 0.0
7 5 7.83988703 0.03614169 0.0
8 5 8.95987089 0.04130479 0.0
9 5 10.07985475 0.04646789 0.0
10 5 11.19983861 0.05163099 0.0
11 5 12.31982247 0.05679409 0.0
12 5 13.43980633 0.06195718 0.0
13 5 14.55979019 0.06712028 0.0
14 5 15.67977406 0.07228338 0.0
15 5 16.79975792 0.07744648 0.0
16 5 17.91974178 0.08260958 0.0
17 5 19.03972564 0.08777268 0.0
18 1 20.15970950 0.09293578 0.0
19 5 0.56036610 0.97070560 0.0
20 5 1.68109829 0.96795551 0.0
21 5 2.80130665 0.97074465 0.0
22 5 3.92129051 0.97590775 0.0
23 5 5.04127437 0.98107085 0.0
24 5 6.16125823 0.98623395 0.0
25 5 7.28124209 0.99139704 0.0
26 5 8.40122595 0.99656014 0.0
27 5 9.52120982 1.00172324 0.0
28 5 10.64119368 1.00688634 0.0
29 5 11.76117754 1.01204944 0.0
30 5 12.88116140 1.01721254 0.0
31 5 14.00114526 1.02237564 0.0
32 5 15.12112912 1.02753874 0.0
33 5 16.24111298 1.03270183 0.0
34 5 17.36109684 1.03786493 0.0
35 5 18.48108070 1.04302803 0.0
36 5 19.60106457 1.04819113 0.0
37 5 0.00000000 1.94416130 0.0
38 5 1.12073219 1.94141120 0.0
39 5 2.24146438 1.93866111 0.0
40 5 3.36219658 1.93591102 0.0
41 5 4.48262944 1.93632620 0.0
42 5 5.60261330 1.94148930 0.0
43 5 6.72259716 1.94665240 0.0
44 5 7.84258102 1.95181550 0.0
45 5 8.96256488 1.95697859 0.0
46 5 10.08254874 1.96214169 0.0
47 5 11.20253260 1.96730479 0.0
48 5 12.32251646 1.97246789 0.0
49 5 13.44250033 1.97763099 0.0
50 5 14.56248419 1.98279409 0.0
51 5 15.68246805 1.98795719 0.0
52 5 16.80245191 1.99312029 0.0
53 5 17.92243577 1.99828338 0.0
54 5 19.04241963 2.00344648 0.0
55 5 20.16240349 2.00860958 0.0
56 5 0.56036610 2.91486690 0.0
57 5 1.68109829 2.91211681 0.0
58 5 2.80183048 2.90936671 0.0
59 5 3.92256267 2.90661662 0.0
60 5 5.04329487 2.90386652 0.0
61 5 6.16395222 2.90190775 0.0
62 5 7.28393609 2.90707085 0.0
63 5 8.40391995 2.91223395 0.0
64 5 9.52390381 2.91739705 0.0
65 5 10.64388767 2.92256014 0.0
66 5 11.76387153 2.92772324 0.0
67 3 12.88385539 2.93288634 0.0
68 5 14.00383925 2.93804944 0.0
69 5 15.12382311 2.94321254 0.0
70 5 16.24380697 2.94837564 0.0
71 5 17.36379084 2.95353874 0.0
72 5 18.48377470 2.95870184 0.0
73 5 19.60375856 2.96386493 0.0
74 5 0.00000000 3.88832259 0.0
75 5 1.12073219 3.88557250 0.0
76 5 2.24146438 3.88282241 0.0
77 5 3.36219658 3.88007231 0.0
78 5 4.48292877 3.87732222 0.0
79 5 5.60366096 3.87457213 0.0
80 5 6.72439315 3.87182203 0.0
81 5 7.84527501 3.86748930 0.0
82 5 8.96525887 3.87265240 0.0
83 5 10.08524273 3.87781550 0.0
84 5 11.20522660 3.88297860 0.0
85 5 12.32521046 3.88814170 0.0
86 5 13.44519432 3.89330479 0.0
87 5 14.56517818 3.89846789 0.0
88 5 15.68516204 3.90363099 0.0
89 5 16.80514590 3.90879409 0.0
90 5 17.92512976 3.91395719 0.0
91 5 19.04511362 3.91912029 0.0
92 5 20.16509748 3.92428339 0.0
93 5 0.56036610 4.85902820 0.0
94 5 1.68109829 4.85627810 0.0
95 5 2.80183048 4.85352801 0.0
96 5 3.92256267 4.85077792 0.0
97 5 5.04329487 4.84802782 0.0
98 5 6.16402706 4.84527773 0.0
99 5 7.28475925 4.84252763 0.0
100 5 8.40549144 4.83977754 0.0
101 5 9.52659780 4.83307085 0.0
102 5 10.64658166 4.83823395 0.0
103 5 11.76656552 4.84339705 0.0
104 5 12.88654938 4.84856015 0.0
105 5 14.00653324 4.85372325 0.0
106 5 15.12651711 4.85888634 0.0
107 5 16.24650097 4.86404944 0.0
108 5 17.36648483 4.86921254 0.0
109 5 18.48646869 4.87437564 0.0
110 5 19.60645255 4.87953874 0.0
111 5 0.00000000 5.83248389 0.0
112 5 1.12073219 5.82973380 0.0
113 5 2.24146438 5.82698370 0.0
114 5 3.36219658 5.82423361 0.0
115 5 4.48292877 5.82148352 0.0
116 5 5.60366096 5.81873342 0.0
117 3 6.72439315 5.81598333 0.0
118 5 7.84512535 5.81323324 0.0
119 5 8.96585754 5.81048314 0.0
120 5 10.08658973 5.80773305 0.0
121 5 11.20732192 5.80498296 0.0
122 5 12.32790445 5.80381550 0.0
123 5 13.44788831 5.80897860 0.0
124 5 14.56787217 5.81414170 0.0
125 5 15.68785603 5.81930480 0.0
126 5 16.80783989 5.82446790 0.0
127 5 17.92782375 5.82963099 0.0
128 5 19.04780762 5.83479409 0.0
129 5 20.16779148 5.83995719 0.0
130 5 0.56036610 6.80318949 0.0
131 5 1.68109829 6.80043940 0.0
132 5 2.80183048 6.79768931 0.0
133 5 3.92256267 6.79493921 0.0
134 5 5.04329487 6.79218912 0.0
135 5 6.16402706 6.78943903 0.0
136 5 7.28475925 6.78668893 0.0
137 5 8.40549144 6.78393884 0.0
138 5 9.52622363 6.78118874 0.0
139 5 10.64695583 6.77843865 0.0
140 5 11.76768802 6.77568856 0.0
141 5 12.88842021 6.77293846 0.0
142 5 14.00922724 6.76939705 0.0
143 5 15.12921110 6.77456015 0.0
144 5 16.24919496 6.77972325 0.0
145 5 17.36917882 6.78488635 0.0
146 5 18.48916268 6.79004945 0.0
147 5 19.60914654 6.79521254 0.0
148 5 0.00000000 7.77664519 0.0
149 5 1.12073219 7.77389510 0.0
150 5 2.24146438 7.77114500 0.0
151 5 3.36219658 7.76839491 0.0
152 5 4.48292877 7.76564481 0.0
153 5 5.60366096 7.76289472 0.0
154 5 6.72439315 7.76014463 0.0
155 5 7.84512535 7.75739453 0.0
156 5 8.96585754 7.75464444 0.0
157 5 10.08658973 7.75189435 0.0
158 5 11.20732192 7.74914425 0.0
159 5 12.32805412 7.74639416 0.0
160 5 13.44878631 7.74364407 0.0
161 5 14.56951850 7.74089397 0.0
162 5 15.69025069 7.73814388 0.0
163 5 16.81053389 7.74014170 0.0
164 5 17.93051775 7.74530480 0.0
165 5 19.05050161 7.75046790 0.0
166 5 20.17048547 7.75563100 0.0
167 5 0.56036610 8.74735079 0.0
168 5 1.68109829 8.74460070 0.0
169 5 2.80183048 8.74185060 0.0
170 5 3.92256267 8.73910051 0.0
171 5 5.04329487 8.73635042 0.0
172 5 6.16402706 8.73360032 0.0
173 5 7.28475925 8.73085023 0.0
174 5 8.40549144 8.72810014 0.0
175 5 9.52622363 8.72535004 0.0
176 5 10.64695583 8.72259995 0.0
177 5 11.76768802 8.71984985 0.0
178 5 12.88842021 8.71709976 0.0
179 5 14.00915240 8.71434967 0.0
180 5 15.12988460 8.71159957 0.0
181 5 16.25061679 8.70884948 0.0
182 5 17.37134898 8.70609939 0.0
183 5 18.49185667 8.70572325 0.0
184 5 19.61184053 8.71088635 0.0
185 1 0.00000000 9.72080649 0.0
186 5 1.12073219 9.71805639 0.0
187 5 2.24146438 9.71530630 0.0
188 5 3.36219658 9.71255621 0.0
189 5 4.48292877 9.70980611 0.0
190 5 5.60366096 9.70705602 0.0
191 5 6.72439315 9.70430592 0.0
192 5 7.84512535 9.70155583 0.0
193 5 8.96585754 9.69880574 0.0
194 5 10.08658973 9.69605564 0.0
195 5 11.20732192 9.69330555 0.0
196 5 12.32805412 9.69055546 0.0
197 5 13.44878631 9.68780536 0.0
198 5 14.56951850 9.68505527 0.0
199 5 15.69025069 9.68230518 0.0
200 5 16.81098288 9.67955508 0.0
201 5 17.93171508 9.67680499 0.0
202 5 19.05244727 9.67405489 0.0
203 1 20.17317946 9.67130480 0.0
