ITEM: TIMESTEP
0
ITEM: NUMBER OF ATOMS
19
ITEM: BOX BOUNDS
0.00000000 20.20431687
-1.0 1.0
-1.0 1.0
ITEM: ATOMS
0 1 0.00000000 0.0 0.0
1 5 1.12246205 0.0 0.0
2 5 2.24492410 0.0 0.0
3 3 3.36738614 0.0 0.0
4 5 4.48984819 0.0 0.0
5 5 5.61231024 0.0 0.0
6 1 6.73477229 0.0 0.0
7 5 7.85723434 0.0 0.0
8 5 8.97969639 0.0 0.0
9 3 10.10215843 0.0 0.0
10 5 11.22462048 0.0 0.0
11 5 12.34708253 0.0 0.0
12 1 13.46954458 0.0 0.0
13 5 14.59200663 0.0 0.0
14 5 15.71446868 0.0 0.0
15 3 16.83693072 0.0 0.0
16 5 17.95939277 0.0 0.0
17 5 19.08185482 0.0 0.0
18 1 20.20431687 0.0 0.0
ITEM: TIMESTEP
1
ITEM: NUMBER OF ATOMS
19
ITEM: BOX BOUNDS
0.00000000 20.20431687
-1.0 1.0
-1.0 1.0
ITEM: ATOMS
0 1 0.00000000 0.0 0.0
1 5 1.12249265 0.0 0.0
2 5 2.24498531 0.0 0.0
3 3 3.36747796 0.0 0.0
4 5 4.48997062 0.0 0.0
5 5 5.61246327 0.0 0.0
6 1 6.73495592 0.0 0.0
7 5 7.85797595 0.0 0.0
8 5 8.98099597 0.0 0.0
9 3 10.10401599 0.0 0.0
10 5 11.22703601 0.0 0.0
11 5 12.35005603 0.0 0.0
12 1 13.47307605 0.0 0.0
13 5 14.59963289 0.0 0.0
14 5 15.72618973 0.0 0.0
15 3 16.85274657 0.0 0.0
16 5 17.97930341 0.0 0.0
17 5 19.10586025 0.0 0.0
18 1 20.23241710 0.0 0.0
