ITEM: TIMESTEP
0
ITEM: NUMBER OF ATOMS
204
ITEM: BOX BOUNDS
0.00000000 20.20431687
0.00000000 9.72080649
-1.0 1.0
ITEM: ATOMS
0 2 0.00000000 0.00000000 0.0
1 2 1.12246205 0.00000000 0.0
2 2 2.24492410 0.00000000 0.0
3 2 3.36738614 0.00000000 0.0
4 2 4.48984819 0.00000000 0.0
5 2 5.61231024 0.00000000 0.0
6 2 6.73477229 0.00000000 0.0
7 2 7.85723434 0.00000000 0.0
8 2 8.97969639 0.00000000 0.0
9 2 10.10215843 0.00000000 0.0
10 2 11.22462048 0.00000000 0.0
11 2 12.34708253 0.00000000 0.0
12 2 13.46954458 0.00000000 0.0
13 2 14.59200663 0.00000000 0.0
14 2 15.71446868 0.00000000 0.0
15 2 16.83693072 0.00000000 0.0
16 2 17.95939277 0.00000000 0.0
17 2 19.08185482 0.00000000 0.0
18 2 20.20431687 0.00000000 0.0
19 2 0.56123102 0.97208065 0.0
20 2 1.68369307 0.97208065 0.0
21 2 2.80615512 0.97208065 0.0
22 2 3.92861717 0.97208065 0.0
23 2 5.05107922 0.97208065 0.0
24 2 6.17354127 0.97208065 0.0
25 2 7.29600331 0.97208065 0.0
26 2 8.41846536 0.97208065 0.0
27 2 9.54092741 0.97208065 0.0
28 2 10.66338946 0.97208065 0.0
29 2 11.78585151 0.97208065 0.0
30 2 12.90831356 0.97208065 0.0
31 2 14.03077560 0.97208065 0.0
32 2 15.15323765 0.97208065 0.0
33 2 16.27569970 0.97208065 0.0
34 2 17.39816175 0.97208065 0.0
35 2 18.52062380 0.97208065 0.0
36 2 19.64308585 0.97208065 0.0
37 2 0.00000000 1.94416130 0.0
38 2 1.12246205 1.94416130 0.0
39 2 2.24492410 1.94416130 0.0
40 2 3.36738614 1.94416130 0.0
41 2 4.48984819 1.94416130 0.0
42 2 5.61231024 1.94416130 0.0
43 2 6.73477229 1.94416130 0.0
44 2 7.85723434 1.94416130 0.0
45 2 8.97969639 1.94416130 0.0
46 2 10.10215843 1.94416130 0.0
47 2 11.22462048 1.94416130 0.0
48 2 12.34708253 1.94416130 0.0
49 2 13.46954458 1.94416130 0.0
50 2 14.59200663 1.94416130 0.0
51 2 15.71446868 1.94416130 0.0
52 2 16.83693072 1.94416130 0.0
53 2 17.95939277 1.94416130 0.0
54 2 19.08185482 1.94416130 0.0
55 2 20.20431687 1.94416130 0.0
56 2 0.56123102 2.91624195 0.0
57 2 1.68369307 2.91624195 0.0
58 2 2.80615512 2.91624195 0.0
59 2 3.92861717 2.91624195 0.0
60 2 5.05107922 2.91624195 0.0
61 2 6.17354127 2.91624195 0.0
62 2 7.29600331 2.91624195 0.0
63 2 8.41846536 2.91624195 0.0
64 2 9.54092741 2.91624195 0.0
65 2 10.66338946 2.91624195 0.0
66 2 11.78585151 2.91624195 0.0
67 2 12.90831356 2.91624195 0.0
68 2 14.03077560 2.91624195 0.0
69 2 15.15323765 2.91624195 0.0
70 2 16.27569970 2.91624195 0.0
71 2 17.39816175 2.91624195 0.0
72 2 18.52062380 2.91624195 0.0
73 2 19.64308585 2.91624195 0.0
74 2 0.00000000 3.88832259 0.0
75 2 1.12246205 3.88832259 0.0
76 2 2.24492410 3.88832259 0.0
77 2 3.36738614 3.88832259 0.0
78 2 4.48984819 3.88832259 0.0
79 2 5.61231024 3.88832259 0.0
80 2 6.73477229 3.88832259 0.0
81 2 7.85723434 3.88832259 0.0
82 2 8.97969639 3.88832259 0.0
83 2 10.10215843 3.88832259 0.0
84 2 11.22462048 3.88832259 0.0
85 2 12.34708253 3.88832259 0.0
86 2 13.46954458 3.88832259 0.0
87 2 14.59200663 3.88832259 0.0
88 2 15.71446868 3.88832259 0.0
89 2 16.83693072 3.88832259 0.0
90 2 17.95939277 3.88832259 0.0
91 2 19.08185482 3.88832259 0.0
92 2 20.20431687 3.88832259 0.0
93 2 0.56123102 4.86040324 0.0
94 2 1.68369307 4.86040324 0.0
95 2 2.80615512 4.86040324 0.0
96 2 3.92861717 4.86040324 0.0
97 2 5.05107922 4.86040324 0.0
98 2 6.17354127 4.86040324 0.0
99 2 7.29600331 4.86040324 0.0
100 2 8.41846536 4.86040324 0.0
101 2 9.54092741 4.86040324 0.0
102 2 10.66338946 4.86040324 0.0
103 2 11.78585151 4.86040324 0.0
104 2 12.90831356 4.86040324 0.0
105 2 14.03077560 4.86040324 0.0
106 2 15.15323765 4.86040324 0.0
107 2 16.27569970 4.86040324 0.0
108 2 17.39816175 4.86040324 0.0
109 2 18.52062380 4.86040324 0.0
110 2 19.64308585 4.86040324 0.0
111 2 0.00000000 5.83248389 0.0
112 2 1.12246205 5.83248389 0.0
113 2 2.24492410 5.83248389 0.0
114 2 3.36738614 5.83248389 0.0
115 2 4.48984819 5.83248389 0.0
116 2 5.61231024 5.83248389 0.0
117 2 6.73477229 5.83248389 0.0
118 2 7.85723434 5.83248389 0.0
119 2 8.97969639 5.83248389 0.0
120 2 10.10215843 5.83248389 0.0
121 2 11.22462048 5.83248389 0.0
122 2 12.34708253 5.83248389 0.0
123 2 13.46954458 5.83248389 0.0
124 2 14.59200663 5.83248389 0.0
125 2 15.71446868 5.83248389 0.0
126 2 16.83693072 5.83248389 0.0
127 2 17.95939277 5.83248389 0.0
128 2 19.08185482 5.83248389 0.0
129 2 20.20431687 5.83248389 0.0
130 2 0.56123102 6.80456454 0.0
131 2 1.68369307 6.80456454 0.0
132 2 2.80615512 6.80456454 0.0
133 2 3.92861717 6.80456454 0.0
134 2 5.05107922 6.80456454 0.0
135 2 6.17354127 6.80456454 0.0
136 2 7.29600331 6.80456454 0.0
137 2 8.41846536 6.80456454 0.0
138 2 9.54092741 6.80456454 0.0
139 2 10.66338946 6.80456454 0.0
140 2 11.78585151 6.80456454 0.0
141 2 12.90831356 6.80456454 0.0
142 2 14.03077560 6.80456454 0.0
143 2 15.15323765 6.80456454 0.0
144 2 16.27569970 6.80456454 0.0
145 2 17.39816175 6.80456454 0.0
146 2 18.52062380 6.80456454 0.0
147 2 19.64308585 6.80456454 0.0
148 2 0.00000000 7.77664519 0.0
149 2 1.12246205 7.77664519 0.0
150 2 2.24492410 7.77664519 0.0
151 2 3.36738614 7.77664519 0.0
152 2 4.48984819 7.77664519 0.0
153 2 5.61231024 7.77664519 0.0
154 2 6.73477229 7.77664519 0.0
155 2 7.85723434 7.77664519 0.0
156 2 8.97969639 7.77664519 0.0
157 2 10.10215843 7.77664519 0.0
158 2 11.22462048 7.77664519 0.0
159 2 12.34708253 7.77664519 0.0
160 2 13.46954458 7.77664519 0.0
161 2 14.59200663 7.77664519 0.0
162 2 15.71446868 7.77664519 0.0
163 2 16.83693072 7.77664519 0.0
164 2 17.95939277 7.77664519 0.0
165 2 19.08185482 7.77664519 0.0
166 2 20.20431687 7.77664519 0.0
167 2 0.56123102 8.74872584 0.0
168 2 1.68369307 8.74872584 0.0
169 2 2.80615512 8.74872584 0.0
170 2 3.92861717 8.74872584 0.0
171 2 5.05107922 8.74872584 0.0
172 2 6.17354127 8.74872584 0.0
173 2 7.29600331 8.74872584 0.0
174 2 8.41846536 8.74872584 0.0
175 2 9.54092741 8.74872584 0.0
176 2 10.66338946 8.74872584 0.0
177 2 11.78585151 8.74872584 0.0
178 2 12.90831356 8.74872584 0.0
179 2 14.03077560 8.74872584 0.0
180 2 15.15323765 8.74872584 0.0
181 2 16.27569970 8.74872584 0.0
182 2 17.39816175 8.74872584 0.0
183 2 18.52062380 8.74872584 0.0
184 2 19.64308585 8.74872584 0.0
185 2 0.00000000 9.72080649 0.0
186 2 1.12246205 9.72080649 0.0
187 2 2.24492410 9.72080649 0.0
188 2 3.36738614 9.72080649 0.0
189 2 4.48984819 9.72080649 0.0
190 2 5.61231024 9.72080649 0.0
191 2 6.73477229 9.72080649 0.0
192 2 7.85723434 9.72080649 0.0
193 2 8.97969639 9.72080649 0.0
194 2 10.10215843 9.72080649 0.0
195 2 11.22462048 9.72080649 0.0
196 2 12.34708253 9.72080649 0.0
197 2 13.46954458 9.72080649 0.0
198 2 14.59200663 9.72080649 0.0
199 2 15.71446868 9.72080649 0.0
200 2 16.83693072 9.72080649 0.0
201 2 17.95939277 9.72080649 0.0
202 2 19.08185482 9.72080649 0.0
203 2 20.20431687 9.72080649 0.0
ITEM: TIMESTEP
1
ITEM: NUMBER OF ATOMS
204
ITEM: BOX BOUNDS
0.00000000 20.20431687
0.00000000 9.72080649
-1.0 1.0
ITEM: ATOMS
0 2 0.00000000 0.00000000 0.0
1 2 1.14416153 0.04238473 0.0
2 2 2.27413689 0.05003555 0.0
3 2 3.39933693 0.06211056 0.0
4 2 4.51814256 0.07223566 0.0
5 2 5.63423934 0.07853856 0.0
6 2 6.74865086 0.08330688 0.0
7 2 7.86345086 0.08649077 0.0
8 2 8.98153885 0.08788552 0.0
9 2 10.10215967 0.08820964 0.0
10 2 11.22277095 0.08787861 0.0
11 2 12.34075121 0.08644174 0.0
12 2 13.45502351 0.08307135 0.0
13 2 14.56806800 0.07776214 0.0
14 2 15.68217596 0.07063620 0.0
15 2 16.79931421 0.06228119 0.0
16 2 17.92206484 0.06204824 0.0
17 2 19.04645584 0.07748515 0.0
18 2 20.17792682 0.11217061 0.0
19 2 0.58394714 1.00260382 0.0
20 2 1.71267116 1.01106226 0.0
21 2 2.83598378 1.02004944 0.0
22 2 3.95649554 1.03141878 0.0
23 2 5.07381152 1.03984531 0.0
24 2 6.19001086 1.04532617 0.0
25 2 7.30529817 1.04878684 0.0
26 2 8.42206025 1.05048990 0.0
27 2 9.54171121 1.05104207 0.0
28 2 10.66259608 1.05103983 0.0
29 2 11.78218254 1.05047494 0.0
30 2 12.89862174 1.04872298 0.0
31 2 14.01290416 1.04512115 0.0
32 2 15.12690734 1.03937479 0.0
33 2 16.24051242 1.03175839 0.0
34 2 17.35538898 1.02686372 0.0
35 2 18.47085782 1.03318901 0.0
36 2 19.58653599 1.05196433 0.0
37 2 0.04830040 1.98628854 0.0
38 2 1.16414447 1.97329138 0.0
39 2 2.28053512 1.97644356 0.0
40 2 3.39826987 1.98418333 0.0
41 2 4.51606890 1.99319979 0.0
42 2 5.63317588 1.99926696 0.0
43 2 6.74896143 2.00307144 0.0
44 2 7.86413576 2.00531583 0.0
45 2 8.98187391 2.00624768 0.0
46 2 10.10215510 2.00645589 0.0
47 2 11.22241224 2.00624679 0.0
48 2 12.33998995 2.00531528 0.0
49 2 13.45456173 2.00308682 0.0
50 2 14.56881015 1.99937264 0.0
51 2 15.68287121 1.99401730 0.0
52 2 16.79581630 1.98878884 0.0
53 2 17.90805064 1.98983480 0.0
54 2 19.02113555 2.00021661 0.0
55 2 20.14564739 2.01077003 0.0
56 2 0.61739663 2.94378562 0.0
57 2 1.73128725 2.93614851 0.0
58 2 2.84599369 2.93907150 0.0
59 2 3.96167985 2.94501710 0.0
60 2 5.07760501 2.95035648 0.0
61 2 6.19357445 2.95392777 0.0
62 2 7.30782910 2.95633211 0.0
63 2 8.42314486 2.95758163 0.0
64 2 9.54195255 2.95798000 0.0
65 2 10.66235523 2.95798077 0.0
66 2 11.78110729 2.95758910 0.0
67 2 12.89615321 2.95637637 0.0
68 2 14.00957889 2.95410538 0.0
69 2 15.12367551 2.95098811 0.0
70 2 16.23647998 2.94755895 0.0
71 2 17.34889779 2.94630893 0.0
72 2 18.46191787 2.95052011 0.0
73 2 19.57861119 2.95976405 0.0
74 2 0.05806825 3.90720491 0.0
75 2 1.18192567 3.90005276 0.0
76 2 2.29394551 3.89859806 0.0
77 2 3.40699233 3.90073997 0.0
78 2 4.52207663 3.90371403 0.0
79 2 5.63788139 3.90599711 0.0
80 2 6.75223493 3.90763333 0.0
81 2 7.86569948 3.90866496 0.0
82 2 8.98233412 3.90908582 0.0
83 2 10.10215661 3.90917541 0.0
84 2 11.22196480 3.90908820 0.0
85 2 12.33849874 3.90868143 0.0
86 2 13.45157029 3.90770884 0.0
87 2 14.56490268 3.90625407 0.0
88 2 15.67877106 3.90460482 0.0
89 2 16.79169997 3.90350490 0.0
90 2 17.90416312 3.90443103 0.0
91 2 19.01892708 3.90798759 0.0
92 2 20.14942378 3.91330952 0.0
93 2 0.62773379 4.86040324 0.0
94 2 1.74016350 4.86040324 0.0
95 2 2.85215051 4.86040324 0.0
96 2 3.96602662 4.86040324 0.0
97 2 5.08083378 4.86040324 0.0
98 2 6.19590992 4.86040324 0.0
99 2 7.30914387 4.86040324 0.0
100 2 8.42362023 4.86040324 0.0
101 2 9.54204660 4.86040324 0.0
102 2 10.66226481 4.86040324 0.0
103 2 11.78065437 4.86040324 0.0
104 2 12.89494194 4.86040324 0.0
105 2 14.00757889 4.86040324 0.0
106 2 15.12132614 4.86040324 0.0
107 2 16.23423663 4.86040324 0.0
108 2 17.34713755 4.86040324 0.0
109 2 18.46040312 4.86040324 0.0
110 2 19.57637214 4.86040324 0.0
111 2 0.05806825 5.81360157 0.0
112 2 1.18192567 5.82075373 0.0
113 2 2.29394551 5.82220842 0.0
114 2 3.40699233 5.82006652 0.0
115 2 4.52207663 5.81709245 0.0
116 2 5.63788139 5.81480937 0.0
117 2 6.75223493 5.81317316 0.0
118 2 7.86569948 5.81214152 0.0
119 2 8.98233412 5.81172066 0.0
120 2 10.10215661 5.81163107 0.0
121 2 11.22196480 5.81171829 0.0
122 2 12.33849874 5.81212505 0.0
123 2 13.45157029 5.81309764 0.0
124 2 14.56490268 5.81455241 0.0
125 2 15.67877106 5.81620167 0.0
126 2 16.79169997 5.81730158 0.0
127 2 17.90416312 5.81637546 0.0
128 2 19.01892708 5.81281889 0.0
129 2 20.14942378 5.80749697 0.0
130 2 0.61739663 6.77702086 0.0
131 2 1.73128725 6.78465798 0.0
132 2 2.84599369 6.78173499 0.0
133 2 3.96167985 6.77578939 0.0
134 2 5.07760501 6.77045000 0.0
135 2 6.19357445 6.76687872 0.0
136 2 7.30782910 6.76447438 0.0
137 2 8.42314486 6.76322486 0.0
138 2 9.54195255 6.76282648 0.0
139 2 10.66235523 6.76282572 0.0
140 2 11.78110729 6.76321738 0.0
141 2 12.89615321 6.76443012 0.0
142 2 14.00957889 6.76670111 0.0
143 2 15.12367551 6.76981838 0.0
144 2 16.23647998 6.77324753 0.0
145 2 17.34889779 6.77449756 0.0
146 2 18.46191787 6.77028637 0.0
147 2 19.57861119 6.76104243 0.0
148 2 0.04830040 7.73451795 0.0
149 2 1.16414447 7.74751511 0.0
150 2 2.28053512 7.74436293 0.0
151 2 3.39826987 7.73662316 0.0
152 2 4.51606890 7.72760670 0.0
153 2 5.63317588 7.72153953 0.0
154 2 6.74896143 7.71773505 0.0
155 2 7.86413576 7.71549066 0.0
156 2 8.98187391 7.71455881 0.0
157 2 10.10215510 7.71435060 0.0
158 2 11.22241224 7.71455969 0.0
159 2 12.33998995 7.71549121 0.0
160 2 13.45456173 7.71771966 0.0
161 2 14.56881015 7.72143384 0.0
162 2 15.68287121 7.72678919 0.0
163 2 16.79581630 7.73201765 0.0
164 2 17.90805064 7.73097168 0.0
165 2 19.02113555 7.72058987 0.0
166 2 20.14564739 7.71003645 0.0
167 2 0.58394714 8.71820266 0.0
168 2 1.71267116 8.70974423 0.0
169 2 2.83598378 8.70075704 0.0
170 2 3.95649554 8.68938771 0.0
171 2 5.07381152 8.68096118 0.0
172 2 6.19001086 8.67548032 0.0
173 2 7.30529817 8.67201965 0.0
174 2 8.42206025 8.67031659 0.0
175 2 9.54171121 8.66976442 0.0
176 2 10.66259608 8.66976666 0.0
177 2 11.78218254 8.67033155 0.0
178 2 12.89862174 8.67208350 0.0
179 2 14.01290416 8.67568534 0.0
180 2 15.12690734 8.68143170 0.0
181 2 16.24051242 8.68904809 0.0
182 2 17.35538898 8.69394277 0.0
183 2 18.47085782 8.68761747 0.0
184 2 19.58653599 8.66884215 0.0
185 2 0.00000000 9.72080649 0.0
186 2 1.14416153 9.67842175 0.0
187 2 2.27413689 9.67077094 0.0
188 2 3.39933693 9.65869592 0.0
189 2 4.51814256 9.64857082 0.0
190 2 5.63423934 9.64226792 0.0
191 2 6.74865086 9.63749960 0.0
192 2 7.86345086 9.63431572 0.0
193 2 8.98153885 9.63292097 0.0
194 2 10.10215967 9.63259684 0.0
195 2 11.22277095 9.63292787 0.0
196 2 12.34075121 9.63436475 0.0
197 2 13.45502351 9.63773514 0.0
198 2 14.56806800 9.64304435 0.0
199 2 15.68217596 9.65017029 0.0
200 2 16.79931421 9.65852530 0.0
201 2 17.92206484 9.65875825 0.0
202 2 19.04645584 9.64332134 0.0
203 2 20.17792682 9.60863588 0.0
