ITEM: TIMESTEP
0
ITEM: NUMBER OF ATOMS
16577
ITEM: BOX BOUNDS
0.56116230 143.11397988
0.51101229 123.91531074
-1.0 1.0
ITEM: ATOMS
0 2 0.56116230 0.54076018 0.0
1 2 1.68224872 0.52567764 0.0
2 2 2.79837908 0.52229016 0.0
3 2 3.91367329 0.52013947 0.0
4 2 5.02847214 0.51865368 0.0
5 2 6.14295089 0.51754340 0.0
6 2 7.25720995 0.51666542 0.0
7 2 8.37131244 0.51594702 0.0
8 2 9.48529899 0.51534955 0.0
9 2 10.59919532 0.51483986 0.0
10 2 11.71301848 0.51439913 0.0
11 2 12.82678469 0.51401983 0.0
12 2 13.94050157 0.51368899 0.0
13 2 15.05417726 0.51339574 0.0
14 2 16.16781934 0.51313736 0.0
15 2 17.28143131 0.51290805 0.0
16 2 18.39501746 0.51270069 0.0
17 2 19.50858237 0.51251425 0.0
18 2 20.62212877 0.51234842 0.0
19 2 21.73565761 0.51219824 0.0
20 2 22.84917192 0.51206332 0.0
21 2 23.96267264 0.51194377 0.0
22 2 25.07615780 0.51183680 0.0
23 2 26.18963106 0.51173984 0.0
24 2 27.30309266 0.51165301 0.0
25 2 28.41654344 0.51157435 0.0
26 2 29.52998416 0.51150262 0.0
27 2 30.64341626 0.51143778 0.0
28 2 31.75684089 0.51138085 0.0
29 2 32.87025688 0.51132961 0.0
30 2 33.98366730 0.51128497 0.0
31 2 35.09707067 0.51124557 0.0
32 2 36.21046652 0.51121150 0.0
33 2 37.32385827 0.51118034 0.0
34 2 38.43724562 0.51115234 0.0
35 2 39.55062880 0.51112776 0.0
36 2 40.66400801 0.51110672 0.0
37 2 41.77738513 0.51108949 0.0
38 2 42.89075738 0.51107445 0.0
39 2 44.00412600 0.51106213 0.0
40 2 45.11749095 0.51105190 0.0
41 2 46.23084999 0.51104362 0.0
42 2 47.34420599 0.51103530 0.0
43 2 48.45755861 0.51102720 0.0
44 2 49.57090807 0.51102008 0.0
45 2 50.68425478 0.51101487 0.0
46 2 51.79760033 0.51101229 0.0
47 2 52.91094205 0.51101244 0.0
48 2 54.02428128 0.51101416 0.0
49 2 55.13761963 0.51101647 0.0
50 2 56.25095552 0.51101942 0.0
51 2 57.36429011 0.51102127 0.0
52 2 58.47762414 0.51102078 0.0
53 2 59.59095909 0.51102035 0.0
54 2 60.70429368 0.51101972 0.0
55 2 61.81762732 0.51101946 0.0
56 2 62.93095982 0.51102058 0.0
57 2 64.04428963 0.51102279 0.0
58 2 65.15761804 0.51102534 0.0
59 2 66.27094567 0.51102826 0.0
60 2 67.38427232 0.51103063 0.0
61 2 68.49759773 0.51103145 0.0
62 2 69.61092212 0.51103107 0.0
63 2 70.72424651 0.51103049 0.0
64 2 71.83757109 0.51103004 0.0
65 2 72.95089567 0.51103049 0.0
66 2 74.06422006 0.51103107 0.0
67 2 75.17754446 0.51103145 0.0
68 2 76.29086986 0.51103063 0.0
69 2 77.40419651 0.51102826 0.0
70 2 78.51752414 0.51102534 0.0
71 2 79.63085255 0.51102279 0.0
72 2 80.74418236 0.51102058 0.0
73 2 81.85751487 0.51101946 0.0
74 2 82.97084850 0.51101972 0.0
75 2 84.08418309 0.51102035 0.0
76 2 85.19751804 0.51102078 0.0
77 2 86.31085207 0.51102127 0.0
78 2 87.42418667 0.51101942 0.0
79 2 88.53752256 0.51101647 0.0
80 2 89.65086091 0.51101416 0.0
81 2 90.76420014 0.51101244 0.0
82 2 91.87754185 0.51101229 0.0
83 2 92.99088740 0.51101487 0.0
84 2 94.10423411 0.51102008 0.0
85 2 95.21758357 0.51102720 0.0
86 2 96.33093619 0.51103530 0.0
87 2 97.44429219 0.51104362 0.0
88 2 98.55765123 0.51105190 0.0
89 2 99.67101618 0.51106213 0.0
90 2 100.78438481 0.51107445 0.0
91 2 101.89775705 0.51108949 0.0
92 2 103.01113417 0.51110672 0.0
93 2 104.12451338 0.51112776 0.0
94 2 105.23789656 0.51115234 0.0
95 2 106.35128391 0.51118034 0.0
96 2 107.46467567 0.51121150 0.0
97 2 108.57807151 0.51124557 0.0
98 2 109.69147488 0.51128497 0.0
99 2 110.80488531 0.51132961 0.0
100 2 111.91830130 0.51138085 0.0
101 2 113.03172592 0.51143778 0.0
102 2 114.14515803 0.51150262 0.0
103 2 115.25859874 0.51157435 0.0
104 2 116.37204953 0.51165301 0.0
105 2 117.48551112 0.51173984 0.0
106 2 118.59898438 0.51183680 0.0
107 2 119.71246954 0.51194377 0.0
108 2 120.82597026 0.51206332 0.0
109 2 121.93948458 0.51219824 0.0
110 2 123.05301341 0.51234842 0.0
111 2 124.16655981 0.51251425 0.0
112 2 125.28012472 0.51270069 0.0
113 2 126.39371088 0.51290805 0.0
114 2 127.50732285 0.51313736 0.0
115 2 128.62096493 0.51339574 0.0
116 2 129.73464061 0.51368899 0.0
117 2 130.84835749 0.51401983 0.0
118 2 131.96212371 0.51439913 0.0
119 2 133.07594687 0.51483986 0.0
120 2 134.18984320 0.51534955 0.0
121 2 135.30382975 0.51594702 0.0
122 2 136.41793223 0.51666542 0.0
123 2 137.53219129 0.51754340 0.0
124 2 138.64667004 0.51865368 0.0
125 2 139.76146890 0.52013947 0.0
126 2 140.87676311 0.52229016 0.0
127 2 141.99289347 0.52567764 0.0
128 2 143.11397988 0.54076018 0.0
129 2 1.13182997 1.49796312 0.0
130 2 2.24563535 1.49155115 0.0
131 2 3.35928151 1.48882048 0.0
132 2 4.47323944 1.48706465 0.0
133 2 5.58725770 1.48581409 0.0
134 2 6.70124802 1.48485740 0.0
135 2 7.81517914 1.48409046 0.0
136 2 8.92905015 1.48345794 0.0
137 2 10.04286458 1.48292442 0.0
138 2 11.15662838 1.48246624 0.0
139 2 12.27034787 1.48207148 0.0
140 2 13.38402894 1.48172810 0.0
141 2 14.49767587 1.48142638 0.0
142 2 15.61129356 1.48115993 0.0
143 2 16.72488703 1.48092344 0.0
144 2 17.83845830 1.48071161 0.0
145 2 18.95200872 1.48052003 0.0
146 2 20.06554321 1.48034904 0.0
147 2 21.17906148 1.48019467 0.0
148 2 22.29256704 1.48005684 0.0
149 2 23.40605785 1.47993409 0.0
150 2 24.51953800 1.47982343 0.0
151 2 25.63300449 1.47972533 0.0
152 2 26.74646124 1.47963661 0.0
153 2 27.85990827 1.47955733 0.0
154 2 28.97334552 1.47948455 0.0
155 2 30.08677369 1.47941851 0.0
156 2 31.20019631 1.47936006 0.0
157 2 32.31360809 1.47930763 0.0
158 2 33.42701688 1.47926225 0.0
159 2 34.54041640 1.47922266 0.0
160 2 35.65381247 1.47918676 0.0
161 2 36.76720171 1.47915531 0.0
162 2 37.88058755 1.47912711 0.0
163 2 38.99396899 1.47910164 0.0
164 2 40.10734606 1.47907972 0.0
165 2 41.22072130 1.47906112 0.0
166 2 42.33409152 1.47904606 0.0
167 2 43.44746050 1.47903462 0.0
168 2 44.56082466 1.47902475 0.0
169 2 45.67418601 1.47901669 0.0
170 2 46.78754182 1.47900976 0.0
171 2 47.90089513 1.47900261 0.0
172 2 49.01424484 1.47899587 0.0
173 2 50.12759130 1.47899015 0.0
174 2 51.24093483 1.47898674 0.0
175 2 52.35427608 1.47898575 0.0
176 2 53.46761622 1.47898741 0.0
177 2 54.58095357 1.47899047 0.0
178 2 55.69428988 1.47899381 0.0
179 2 56.80762572 1.47899607 0.0
180 2 57.92096021 1.47899666 0.0
181 2 59.03429541 1.47899689 0.0
182 2 60.14762826 1.47899575 0.0
183 2 61.26096199 1.47899536 0.0
184 2 62.37429424 1.47899659 0.0
185 2 63.48762527 1.47899846 0.0
186 2 64.60095393 1.47900157 0.0
187 2 65.71428138 1.47900421 0.0
188 2 66.82760892 1.47900724 0.0
189 2 67.94093506 1.47900908 0.0
190 2 69.05426019 1.47900955 0.0
191 2 70.16758468 1.47900960 0.0
192 2 71.28090856 1.47900925 0.0
193 2 72.39423362 1.47900925 0.0
194 2 73.50755750 1.47900960 0.0
195 2 74.62088199 1.47900955 0.0
196 2 75.73420712 1.47900908 0.0
197 2 76.84753326 1.47900724 0.0
198 2 77.96086080 1.47900421 0.0
199 2 79.07418825 1.47900157 0.0
200 2 80.18751691 1.47899846 0.0
201 2 81.30084795 1.47899659 0.0
202 2 82.41418020 1.47899536 0.0
203 2 83.52751392 1.47899575 0.0
204 2 84.64084678 1.47899689 0.0
205 2 85.75418197 1.47899666 0.0
206 2 86.86751647 1.47899607 0.0
207 2 87.98085230 1.47899381 0.0
208 2 89.09418862 1.47899047 0.0
209 2 90.20752596 1.47898741 0.0
210 2 91.32086610 1.47898575 0.0
211 2 92.43420735 1.47898674 0.0
212 2 93.54755088 1.47899015 0.0
213 2 94.66089734 1.47899587 0.0
214 2 95.77424706 1.47900261 0.0
215 2 96.88760036 1.47900976 0.0
216 2 98.00095617 1.47901669 0.0
217 2 99.11431753 1.47902475 0.0
218 2 100.22768168 1.47903462 0.0
219 2 101.34105067 1.47904606 0.0
220 2 102.45442088 1.47906112 0.0
221 2 103.56779613 1.47907972 0.0
222 2 104.68117319 1.47910164 0.0
223 2 105.79455463 1.47912711 0.0
224 2 106.90794048 1.47915531 0.0
225 2 108.02132971 1.47918676 0.0
226 2 109.13472578 1.47922266 0.0
227 2 110.24812530 1.47926225 0.0
228 2 111.36153409 1.47930763 0.0
229 2 112.47494588 1.47936006 0.0
230 2 113.58836849 1.47941851 0.0
231 2 114.70179666 1.47948455 0.0
232 2 115.81523392 1.47955733 0.0
233 2 116.92868094 1.47963661 0.0
234 2 118.04213769 1.47972533 0.0
235 2 119.15560418 1.47982343 0.0
236 2 120.26908433 1.47993409 0.0
237 2 121.38257515 1.48005684 0.0
238 2 122.49608070 1.48019467 0.0
239 2 123.60959897 1.48034904 0.0
240 2 124.72313346 1.48052003 0.0
241 2 125.83668388 1.48071161 0.0
242 2 126.95025515 1.48092344 0.0
243 2 128.06384863 1.48115993 0.0
244 2 129.17746631 1.48142638 0.0
245 2 130.29111324 1.48172810 0.0
246 2 131.40479431 1.48207148 0.0
247 2 132.51851381 1.48246624 0.0
248 2 133.63227760 1.48292442 0.0
249 2 134.74609203 1.48345794 0.0
250 2 135.85996304 1.48409046 0.0
251 2 136.97389416 1.48485740 0.0
252 2 138.08788448 1.48581409 0.0
253 2 139.20190274 1.48706465 0.0
254 2 140.31586067 1.48882048 0.0
255 2 141.42950684 1.49155115 0.0
256 2 142.54331221 1.49796312 0.0
257 2 0.57109868 2.46116167 0.0
258 2 1.69227987 2.45802210 0.0
259 2 2.80524538 2.45420507 0.0
260 2 3.91851170 2.45195123 0.0
261 2 5.03201720 2.45041703 0.0
262 2 6.14564733 2.44929593 0.0
263 2 7.25933075 2.44842918 0.0
264 2 8.37302660 2.44773063 0.0
265 2 9.48671595 2.44715355 0.0
266 2 10.60038627 2.44666489 0.0
267 2 11.71403375 2.44624654 0.0
268 2 12.82765858 2.44588493 0.0
269 2 13.94126183 2.44556784 0.0
270 2 15.05484384 2.44529007 0.0
271 2 16.16840729 2.44504369 0.0
272 2 17.28195472 2.44482419 0.0
273 2 18.39548448 2.44462746 0.0
274 2 19.50900164 2.44445052 0.0
275 2 20.62250522 2.44429163 0.0
276 2 21.73599570 2.44414924 0.0
277 2 22.84947559 2.44402171 0.0
278 2 23.96294548 2.44390943 0.0
279 2 25.07640485 2.44380766 0.0
280 2 26.18985311 2.44371701 0.0
281 2 27.30329483 2.44363431 0.0
282 2 28.41672658 2.44356026 0.0
283 2 29.53015078 2.44349337 0.0
284 2 30.64356751 2.44343309 0.0
285 2 31.75697666 2.44338005 0.0
286 2 32.87038003 2.44333363 0.0
287 2 33.98377701 2.44329318 0.0
288 2 35.09716980 2.44325762 0.0
289 2 36.21055720 2.44322600 0.0
290 2 37.32394077 2.44319710 0.0
291 2 38.43732055 2.44317099 0.0
292 2 39.55069548 2.44314814 0.0
293 2 40.66406756 2.44312851 0.0
294 2 41.77743617 2.44311190 0.0
295 2 42.89080251 2.44309990 0.0
296 2 44.00416512 2.44309037 0.0
297 2 45.11752616 2.44308321 0.0
298 2 46.23088257 2.44307622 0.0
299 2 47.34423543 2.44306963 0.0
300 2 48.45758611 2.44306502 0.0
301 2 49.57093225 2.44306090 0.0
302 2 50.68427517 2.44305756 0.0
303 2 51.79761681 2.44305532 0.0
304 2 52.91095570 2.44305626 0.0
305 2 54.02429179 2.44305800 0.0
306 2 55.13762860 2.44306103 0.0
307 2 56.25096443 2.44306293 0.0
308 2 57.36429918 2.44306426 0.0
309 2 58.47763377 2.44306476 0.0
310 2 59.59096648 2.44306507 0.0
311 2 60.70429913 2.44306547 0.0
312 2 61.81763089 2.44306665 0.0
313 2 62.93096174 2.44306855 0.0
314 2 64.04429101 2.44307187 0.0
315 2 65.15761835 2.44307579 0.0
316 2 66.27094567 2.44307835 0.0
317 2 67.38427276 2.44307971 0.0
318 2 68.49759854 2.44308116 0.0
319 2 69.61092282 2.44308121 0.0
320 2 70.72424694 2.44308130 0.0
321 2 71.83757109 2.44308087 0.0
322 2 72.95089524 2.44308130 0.0
323 2 74.06421936 2.44308121 0.0
324 2 75.17754365 2.44308116 0.0
325 2 76.29086942 2.44307971 0.0
326 2 77.40419652 2.44307835 0.0
327 2 78.51752383 2.44307579 0.0
328 2 79.63085117 2.44307187 0.0
329 2 80.74418044 2.44306855 0.0
330 2 81.85751129 2.44306665 0.0
331 2 82.97084305 2.44306547 0.0
332 2 84.08417570 2.44306507 0.0
333 2 85.19750842 2.44306476 0.0
334 2 86.31084301 2.44306426 0.0
335 2 87.42417775 2.44306293 0.0
336 2 88.53751359 2.44306103 0.0
337 2 89.65085039 2.44305800 0.0
338 2 90.76418649 2.44305626 0.0
339 2 91.87752537 2.44305532 0.0
340 2 92.99086702 2.44305756 0.0
341 2 94.10420994 2.44306090 0.0
342 2 95.21755607 2.44306502 0.0
343 2 96.33090675 2.44306963 0.0
344 2 97.44425961 2.44307622 0.0
345 2 98.55761603 2.44308321 0.0
346 2 99.67097707 2.44309037 0.0
347 2 100.78433968 2.44309990 0.0
348 2 101.89770601 2.44311190 0.0
349 2 103.01107463 2.44312851 0.0
350 2 104.12444671 2.44314814 0.0
351 2 105.23782164 2.44317099 0.0
352 2 106.35120141 2.44319710 0.0
353 2 107.46458499 2.44322600 0.0
354 2 108.57797239 2.44325762 0.0
355 2 109.69136517 2.44329318 0.0
356 2 110.80476215 2.44333363 0.0
357 2 111.91816552 2.44338005 0.0
358 2 113.03157467 2.44343309 0.0
359 2 114.14499140 2.44349337 0.0
360 2 115.25841560 2.44356026 0.0
361 2 116.37184735 2.44363431 0.0
362 2 117.48528908 2.44371701 0.0
363 2 118.59873733 2.44380766 0.0
364 2 119.71219670 2.44390943 0.0
365 2 120.82566659 2.44402171 0.0
366 2 121.93914648 2.44414924 0.0
367 2 123.05263697 2.44429163 0.0
368 2 124.16614054 2.44445052 0.0
369 2 125.27965770 2.44462746 0.0
370 2 126.39318746 2.44482419 0.0
371 2 127.50673489 2.44504369 0.0
372 2 128.62029834 2.44529007 0.0
373 2 129.73388035 2.44556784 0.0
374 2 130.84748361 2.44588493 0.0
375 2 131.96110844 2.44624654 0.0
376 2 133.07475592 2.44666489 0.0
377 2 134.18842623 2.44715355 0.0
378 2 135.30211558 2.44773063 0.0
379 2 136.41581143 2.44842918 0.0
380 2 137.52949485 2.44929593 0.0
381 2 138.64312499 2.45041703 0.0
382 2 139.75663048 2.45195123 0.0
383 2 140.86989680 2.45420507 0.0
384 2 141.98286232 2.45802210 0.0
385 2 143.10404350 2.46116167 0.0
386 2 1.13573693 3.42213063 0.0
387 2 2.25070026 3.41964607 0.0
388 2 3.36377810 3.41705698 0.0
389 2 4.47695449 3.41521962 0.0
390 2 5.59027430 3.41387706 0.0
391 2 6.70370405 3.41285979 0.0
392 2 7.81720065 3.41205964 0.0
393 2 8.93073534 3.41141071 0.0
394 2 10.04428696 3.41087266 0.0
395 2 11.15784282 3.41041850 0.0
396 2 12.27139510 3.41002860 0.0
397 2 13.38493954 3.40969080 0.0
398 2 14.49847384 3.40939654 0.0
399 2 15.61199748 3.40913699 0.0
400 2 16.72551280 3.40890620 0.0
401 2 17.83901575 3.40869972 0.0
402 2 18.95250876 3.40851544 0.0
403 2 20.06599152 3.40835065 0.0
404 2 21.17946563 3.40820347 0.0
405 2 22.29292983 3.40807209 0.0
406 2 23.40638635 3.40795405 0.0
407 2 24.51983298 3.40784938 0.0
408 2 25.63327270 3.40775555 0.0
409 2 26.74670561 3.40767091 0.0
410 2 27.86012982 3.40759468 0.0
411 2 28.97354751 3.40752604 0.0
412 2 30.08695714 3.40746494 0.0
413 2 31.20036192 3.40741008 0.0
414 2 32.31375944 3.40736193 0.0
415 2 33.42715300 3.40731911 0.0
416 2 34.54054070 3.40728317 0.0
417 2 35.65392549 3.40724975 0.0
418 2 36.76730483 3.40721943 0.0
419 2 37.88068260 3.40719345 0.0
420 2 38.99405505 3.40717042 0.0
421 2 40.10742393 3.40715102 0.0
422 2 41.22079062 3.40713289 0.0
423 2 42.33415382 3.40711989 0.0
424 2 43.44751443 3.40710941 0.0
425 2 44.56087288 3.40710167 0.0
426 2 45.67422906 3.40709484 0.0
427 2 46.78758187 3.40708994 0.0
428 2 47.90093156 3.40708603 0.0
429 2 49.01427733 3.40708221 0.0
430 2 50.12762029 3.40707883 0.0
431 2 51.24096060 3.40707696 0.0
432 2 52.35429967 3.40707632 0.0
433 2 53.46763501 3.40707797 0.0
434 2 54.58097172 3.40708109 0.0
435 2 55.69430585 3.40708364 0.0
436 2 56.80764219 3.40708567 0.0
437 2 57.92097501 3.40708687 0.0
438 2 59.03430874 3.40708818 0.0
439 2 60.14763899 3.40708877 0.0
440 2 61.26097086 3.40708849 0.0
441 2 62.37430094 3.40709000 0.0
442 2 63.48762963 3.40709348 0.0
443 2 64.60095632 3.40709751 0.0
444 2 65.71428316 3.40710036 0.0
445 2 66.82761000 3.40710358 0.0
446 2 67.94093618 3.40710532 0.0
447 2 69.05426022 3.40710564 0.0
448 2 70.16758455 3.40710525 0.0
449 2 71.28090827 3.40710473 0.0
450 2 72.39423391 3.40710473 0.0
451 2 73.50755764 3.40710525 0.0
452 2 74.62088196 3.40710564 0.0
453 2 75.73420600 3.40710532 0.0
454 2 76.84753219 3.40710358 0.0
455 2 77.96085902 3.40710036 0.0
456 2 79.07418587 3.40709751 0.0
457 2 80.18751255 3.40709348 0.0
458 2 81.30084124 3.40709000 0.0
459 2 82.41417132 3.40708849 0.0
460 2 83.52750319 3.40708877 0.0
461 2 84.64083345 3.40708818 0.0
462 2 85.75416717 3.40708687 0.0
463 2 86.86750000 3.40708567 0.0
464 2 87.98083634 3.40708364 0.0
465 2 89.09417046 3.40708109 0.0
466 2 90.20750718 3.40707797 0.0
467 2 91.32084251 3.40707632 0.0
468 2 92.43418158 3.40707696 0.0
469 2 93.54752189 3.40707883 0.0
470 2 94.66086486 3.40708221 0.0
471 2 95.77421062 3.40708603 0.0
472 2 96.88756031 3.40708994 0.0
473 2 98.00091312 3.40709484 0.0
474 2 99.11426931 3.40710167 0.0
475 2 100.22762775 3.40710941 0.0
476 2 101.34098837 3.40711989 0.0
477 2 102.45435157 3.40713289 0.0
478 2 103.56771826 3.40715102 0.0
479 2 104.68108714 3.40717042 0.0
480 2 105.79445959 3.40719345 0.0
481 2 106.90783735 3.40721943 0.0
482 2 108.02121669 3.40724975 0.0
483 2 109.13460148 3.40728317 0.0
484 2 110.24798919 3.40731911 0.0
485 2 111.36138274 3.40736193 0.0
486 2 112.47478026 3.40741008 0.0
487 2 113.58818504 3.40746494 0.0
488 2 114.70159467 3.40752604 0.0
489 2 115.81501237 3.40759468 0.0
490 2 116.92843657 3.40767091 0.0
491 2 118.04186948 3.40775555 0.0
492 2 119.15530920 3.40784938 0.0
493 2 120.26875583 3.40795405 0.0
494 2 121.38221235 3.40807209 0.0
495 2 122.49567655 3.40820347 0.0
496 2 123.60915066 3.40835065 0.0
497 2 124.72263342 3.40851544 0.0
498 2 125.83612643 3.40869972 0.0
499 2 126.94962938 3.40890620 0.0
500 2 128.06314470 3.40913699 0.0
501 2 129.17666834 3.40939654 0.0
502 2 130.29020265 3.40969080 0.0
503 2 131.40374709 3.41002860 0.0
504 2 132.51729936 3.41041850 0.0
505 2 133.63085522 3.41087266 0.0
506 2 134.74440685 3.41141071 0.0
507 2 135.85794153 3.41205964 0.0
508 2 136.97143813 3.41285979 0.0
509 2 138.08486788 3.41387706 0.0
510 2 139.19818770 3.41521962 0.0
511 2 140.31136409 3.41705698 0.0
512 2 141.42444192 3.41964607 0.0
513 2 142.53940525 3.42213063 0.0
514 2 0.57463505 4.38566039 0.0
515 2 1.69526522 4.38404657 0.0
516 2 2.80864183 4.38204798 0.0
517 2 3.92176825 4.38011351 0.0
518 2 5.03492692 4.37859659 0.0
519 2 6.14817059 4.37742165 0.0
520 2 7.26149287 4.37649813 0.0
521 2 8.37487691 4.37575822 0.0
522 2 9.48830363 4.37515201 0.0
523 2 10.60175656 4.37464638 0.0
524 2 11.71522447 4.37421799 0.0
525 2 12.82870014 4.37384981 0.0
526 2 13.94217909 4.37353103 0.0
527 2 15.05565585 4.37325179 0.0
528 2 16.16913017 4.37300694 0.0
529 2 17.28259935 4.37278801 0.0
530 2 18.39606359 4.37259399 0.0
531 2 19.50952248 4.37242083 0.0
532 2 20.62297532 4.37226615 0.0
533 2 21.73642014 4.37212847 0.0
534 2 22.84985931 4.37200499 0.0
535 2 23.96329299 4.37189612 0.0
536 2 25.07671983 4.37179855 0.0
537 2 26.19014005 4.37171066 0.0
538 2 27.30355474 4.37163129 0.0
539 2 28.41696359 4.37155951 0.0
540 2 29.53036682 4.37149674 0.0
541 2 30.64376378 4.37144080 0.0
542 2 31.75715614 4.37138950 0.0
543 2 32.87054314 4.37134609 0.0
544 2 33.98392765 4.37130821 0.0
545 2 35.09730723 4.37127473 0.0
546 2 36.21068260 4.37124541 0.0
547 2 37.32405565 4.37121822 0.0
548 2 38.43742458 4.37119459 0.0
549 2 39.55079101 4.37117310 0.0
550 2 40.66415376 4.37115576 0.0
551 2 41.77751486 4.37114063 0.0
552 2 42.89087181 4.37112843 0.0
553 2 44.00422866 4.37112069 0.0
554 2 45.11758262 4.37111434 0.0
555 2 46.23093453 4.37110906 0.0
556 2 47.34428200 4.37110437 0.0
557 2 48.45762808 4.37110169 0.0
558 2 49.57096999 4.37110056 0.0
559 2 50.68430991 4.37109897 0.0
560 2 51.79764680 4.37109831 0.0
561 2 52.91098334 4.37109855 0.0
562 2 54.02431779 4.37110036 0.0
563 2 55.13765251 4.37110221 0.0
564 2 56.25098680 4.37110345 0.0
565 2 57.36431985 4.37110532 0.0
566 2 58.47765217 4.37110794 0.0
567 2 59.59098309 4.37110914 0.0
568 2 60.70431329 4.37111101 0.0
569 2 61.81764241 4.37111265 0.0
570 2 62.93097021 4.37111590 0.0
571 2 64.04429710 4.37111994 0.0
572 2 65.15762297 4.37112343 0.0
573 2 66.27094885 4.37112621 0.0
574 2 67.38427391 4.37112705 0.0
575 2 68.49759834 4.37112832 0.0
576 2 69.61092268 4.37112905 0.0
577 2 70.72424693 4.37112759 0.0
578 2 71.83757109 4.37112678 0.0
579 2 72.95089526 4.37112759 0.0
580 2 74.06421950 4.37112905 0.0
581 2 75.17754384 4.37112832 0.0
582 2 76.29086827 4.37112705 0.0
583 2 77.40419333 4.37112621 0.0
584 2 78.51751922 4.37112343 0.0
585 2 79.63084508 4.37111994 0.0
586 2 80.74417197 4.37111590 0.0
587 2 81.85749977 4.37111265 0.0
588 2 82.97082889 4.37111101 0.0
589 2 84.08415910 4.37110914 0.0
590 2 85.19749002 4.37110794 0.0
591 2 86.31082233 4.37110532 0.0
592 2 87.42415539 4.37110345 0.0
593 2 88.53748967 4.37110221 0.0
594 2 89.65082439 4.37110036 0.0
595 2 90.76415885 4.37109855 0.0
596 2 91.87749539 4.37109831 0.0
597 2 92.99083227 4.37109897 0.0
598 2 94.10417219 4.37110056 0.0
599 2 95.21751411 4.37110169 0.0
600 2 96.33086018 4.37110437 0.0
601 2 97.44420766 4.37110906 0.0
602 2 98.55755956 4.37111434 0.0
603 2 99.67091352 4.37112069 0.0
604 2 100.78427038 4.37112843 0.0
605 2 101.89762732 4.37114063 0.0
606 2 103.01098842 4.37115576 0.0
607 2 104.12435117 4.37117310 0.0
608 2 105.23771760 4.37119459 0.0
609 2 106.35108653 4.37121822 0.0
610 2 107.46445959 4.37124541 0.0
611 2 108.57783495 4.37127473 0.0
612 2 109.69121453 4.37130821 0.0
613 2 110.80459904 4.37134609 0.0
614 2 111.91798604 4.37138950 0.0
615 2 113.03137841 4.37144080 0.0
616 2 114.14477537 4.37149674 0.0
617 2 115.25817859 4.37155951 0.0
618 2 116.37158745 4.37163129 0.0
619 2 117.48500214 4.37171066 0.0
620 2 118.59842236 4.37179855 0.0
621 2 119.71184919 4.37189612 0.0
622 2 120.82528287 4.37200499 0.0
623 2 121.93872204 4.37212847 0.0
624 2 123.05216687 4.37226615 0.0
625 2 124.16561970 4.37242083 0.0
626 2 125.27907859 4.37259399 0.0
627 2 126.39254283 4.37278801 0.0
628 2 127.50601202 4.37300694 0.0
629 2 128.61948634 4.37325179 0.0
630 2 129.73296309 4.37353103 0.0
631 2 130.84644204 4.37384981 0.0
632 2 131.95991772 4.37421799 0.0
633 2 133.07338562 4.37464638 0.0
634 2 134.18683856 4.37515201 0.0
635 2 135.30026527 4.37575822 0.0
636 2 136.41364931 4.37649813 0.0
637 2 137.52697159 4.37742165 0.0
638 2 138.64021526 4.37859659 0.0
639 2 139.75337393 4.38011351 0.0
640 2 140.86650035 4.38204798 0.0
641 2 141.97987696 4.38404657 0.0
642 2 143.10050714 4.38566039 0.0
643 2 1.13794666 5.34792207 0.0
644 2 2.25293880 5.34648279 0.0
645 2 3.36625876 5.34485886 0.0
646 2 4.47943059 5.34332630 0.0
647 2 5.59259646 5.34205403 0.0
648 2 6.70580947 5.34102265 0.0
649 2 7.81907543 5.34018757 0.0
650 2 8.93239054 5.33950332 0.0
651 2 10.04574522 5.33893526 0.0
652 2 11.15912876 5.33845845 0.0
653 2 12.27253181 5.33805179 0.0
654 2 13.38594872 5.33770263 0.0
655 2 14.49937207 5.33739991 0.0
656 2 15.61280159 5.33713515 0.0
657 2 16.72623271 5.33690149 0.0
658 2 17.83966410 5.33669352 0.0
659 2 18.95309422 5.33650941 0.0
660 2 20.06652126 5.33634573 0.0
661 2 21.17994531 5.33620009 0.0
662 2 22.29336498 5.33607021 0.0
663 2 23.40678148 5.33595452 0.0
664 2 24.52019250 5.33585179 0.0
665 2 25.63359936 5.33575963 0.0
666 2 26.74700245 5.33567664 0.0
667 2 27.86040026 5.33560295 0.0
668 2 28.97379459 5.33553590 0.0
669 2 30.08718379 5.33547749 0.0
670 2 31.20056981 5.33542427 0.0
671 2 32.31395051 5.33537767 0.0
672 2 33.42732848 5.33533709 0.0
673 2 34.54070256 5.33530207 0.0
674 2 35.65407363 5.33527231 0.0
675 2 36.76744049 5.33524291 0.0
676 2 37.88080666 5.33521786 0.0
677 2 38.99416800 5.33519681 0.0
678 2 40.10752713 5.33517859 0.0
679 2 41.22088444 5.33516325 0.0
680 2 42.33423992 5.33514997 0.0
681 2 43.44759272 5.33514041 0.0
682 2 44.56094407 5.33513416 0.0
683 2 45.67429302 5.33512839 0.0
684 2 46.78763986 5.33512444 0.0
685 2 47.90098420 5.33512219 0.0
686 2 49.01432527 5.33512075 0.0
687 2 50.12766356 5.33511976 0.0
688 2 51.24100081 5.33511800 0.0
689 2 52.35433574 5.33511827 0.0
690 2 53.46766878 5.33511933 0.0
691 2 54.58100268 5.33512237 0.0
692 2 55.69433433 5.33512523 0.0
693 2 56.80766746 5.33512694 0.0
694 2 57.92099781 5.33512834 0.0
695 2 59.03432915 5.33513098 0.0
696 2 60.14765817 5.33513357 0.0
697 2 61.26098712 5.33513574 0.0
698 2 62.37431351 5.33513770 0.0
699 2 63.48764052 5.33514148 0.0
700 2 64.60096469 5.33514523 0.0
701 2 65.71429022 5.33514768 0.0
702 2 66.82761352 5.33515015 0.0
703 2 67.94093782 5.33515136 0.0
704 2 69.05426245 5.33515246 0.0
705 2 70.16758543 5.33515138 0.0
706 2 71.28090946 5.33515035 0.0
707 2 72.39423272 5.33515035 0.0
708 2 73.50755675 5.33515138 0.0
709 2 74.62087974 5.33515246 0.0
710 2 75.73420436 5.33515136 0.0
711 2 76.84752867 5.33515015 0.0
712 2 77.96085197 5.33514768 0.0
713 2 79.07417749 5.33514523 0.0
714 2 80.18750166 5.33514148 0.0
715 2 81.30082867 5.33513770 0.0
716 2 82.41415506 5.33513574 0.0
717 2 83.52748401 5.33513357 0.0
718 2 84.64081303 5.33513098 0.0
719 2 85.75414437 5.33512834 0.0
720 2 86.86747473 5.33512694 0.0
721 2 87.98080785 5.33512523 0.0
722 2 89.09413951 5.33512237 0.0
723 2 90.20747340 5.33511933 0.0
724 2 91.32080645 5.33511827 0.0
725 2 92.43414137 5.33511800 0.0
726 2 93.54747862 5.33511976 0.0
727 2 94.66081691 5.33512075 0.0
728 2 95.77415799 5.33512219 0.0
729 2 96.88750233 5.33512444 0.0
730 2 98.00084917 5.33512839 0.0
731 2 99.11419811 5.33513416 0.0
732 2 100.22754946 5.33514041 0.0
733 2 101.34090226 5.33514997 0.0
734 2 102.45425774 5.33516325 0.0
735 2 103.56761505 5.33517859 0.0
736 2 104.68097418 5.33519681 0.0
737 2 105.79433552 5.33521786 0.0
738 2 106.90770169 5.33524291 0.0
739 2 108.02106855 5.33527231 0.0
740 2 109.13443962 5.33530207 0.0
741 2 110.24781370 5.33533709 0.0
742 2 111.36119168 5.33537767 0.0
743 2 112.47457238 5.33542427 0.0
744 2 113.58795840 5.33547749 0.0
745 2 114.70134760 5.33553590 0.0
746 2 115.81474192 5.33560295 0.0
747 2 116.92813973 5.33567664 0.0
748 2 118.04154282 5.33575963 0.0
749 2 119.15494969 5.33585179 0.0
750 2 120.26836070 5.33595452 0.0
751 2 121.38177720 5.33607021 0.0
752 2 122.49519687 5.33620009 0.0
753 2 123.60862093 5.33634573 0.0
754 2 124.72204796 5.33650941 0.0
755 2 125.83547808 5.33669352 0.0
756 2 126.94890948 5.33690149 0.0
757 2 128.06234059 5.33713515 0.0
758 2 129.17577012 5.33739991 0.0
759 2 130.28919347 5.33770263 0.0
760 2 131.40261037 5.33805179 0.0
761 2 132.51601342 5.33845845 0.0
762 2 133.62939696 5.33893526 0.0
763 2 134.74275164 5.33950332 0.0
764 2 135.85606675 5.34018757 0.0
765 2 136.96933271 5.34102265 0.0
766 2 138.08254572 5.34205403 0.0
767 2 139.19571159 5.34332630 0.0
768 2 140.30888342 5.34485886 0.0
769 2 141.42220338 5.34648279 0.0
770 2 142.53719552 5.34792207 0.0
771 2 0.57667230 6.31158371 0.0
772 2 1.69707742 6.31054855 0.0
773 2 2.81047083 6.30927418 0.0
774 2 3.92371870 6.30792464 0.0
775 2 5.03689495 6.30666312 0.0
776 2 6.15006538 6.30557654 0.0
777 2 7.26326252 6.30466637 0.0
778 2 8.37649858 6.30391121 0.0
779 2 9.48977244 6.30327896 0.0
780 2 10.60307874 6.30274753 0.0
781 2 11.71641337 6.30229789 0.0
782 2 12.82976769 6.30191178 0.0
783 2 13.94313774 6.30157827 0.0
784 2 15.05651991 6.30128812 0.0
785 2 16.16990963 6.30103486 0.0
786 2 17.28330464 6.30081119 0.0
787 2 18.39670395 6.30061226 0.0
788 2 19.51010332 6.30043672 0.0
789 2 20.62350347 6.30028117 0.0
790 2 21.73690097 6.30014278 0.0
791 2 22.85029846 6.30002046 0.0
792 2 23.96369163 6.29991093 0.0
793 2 25.07708440 6.29981348 0.0
794 2 26.19047247 6.29972692 0.0
795 2 27.30385862 6.29964854 0.0
796 2 28.41724068 6.29957722 0.0
797 2 29.53062168 6.29951471 0.0
798 2 30.64399955 6.29945940 0.0
799 2 31.75737282 6.29941059 0.0
800 2 32.87074341 6.29936804 0.0
801 2 33.98411142 6.29933108 0.0
802 2 35.09747703 6.29929915 0.0
803 2 36.21083860 6.29927131 0.0
804 2 37.32419858 6.29924638 0.0
805 2 38.43755489 6.29922412 0.0
806 2 39.55091144 6.29920456 0.0
807 2 40.66426466 6.29918751 0.0
808 2 41.77761603 6.29917309 0.0
809 2 42.89096480 6.29916199 0.0
810 2 44.00431317 6.29915456 0.0
811 2 45.11765961 6.29914924 0.0
812 2 46.23100443 6.29914540 0.0
813 2 47.34434594 6.29914203 0.0
814 2 48.45768568 6.29914049 0.0
815 2 49.57102346 6.29914046 0.0
816 2 50.68435990 6.29914070 0.0
817 2 51.79769267 6.29914011 0.0
818 2 52.91102504 6.29914093 0.0
819 2 54.02435598 6.29914229 0.0
820 2 55.13768745 6.29914444 0.0
821 2 56.25101814 6.29914641 0.0
822 2 57.36434740 6.29914796 0.0
823 2 58.47767794 6.29915182 0.0
824 2 59.59100562 6.29915471 0.0
825 2 60.70433395 6.29915825 0.0
826 2 61.81766004 6.29916075 0.0
827 2 62.93098517 6.29916483 0.0
828 2 64.04430915 6.29916843 0.0
829 2 65.15763263 6.29917212 0.0
830 2 66.27095609 6.29917382 0.0
831 2 67.38427843 6.29917428 0.0
832 2 68.49760263 6.29917490 0.0
833 2 69.61092548 6.29917447 0.0
834 2 70.72424873 6.29917397 0.0
835 2 71.83757109 6.29917290 0.0
836 2 72.95089345 6.29917397 0.0
837 2 74.06421670 6.29917447 0.0
838 2 75.17753956 6.29917490 0.0
839 2 76.29086375 6.29917428 0.0
840 2 77.40418609 6.29917382 0.0
841 2 78.51750956 6.29917212 0.0
842 2 79.63083303 6.29916843 0.0
843 2 80.74415701 6.29916483 0.0
844 2 81.85748214 6.29916075 0.0
845 2 82.97080824 6.29915825 0.0
846 2 84.08413657 6.29915471 0.0
847 2 85.19746424 6.29915182 0.0
848 2 86.31079478 6.29914796 0.0
849 2 87.42412404 6.29914641 0.0
850 2 88.53745473 6.29914444 0.0
851 2 89.65078620 6.29914229 0.0
852 2 90.76411715 6.29914093 0.0
853 2 91.87744951 6.29914011 0.0
854 2 92.99078229 6.29914070 0.0
855 2 94.10411872 6.29914046 0.0
856 2 95.21745651 6.29914049 0.0
857 2 96.33079624 6.29914203 0.0
858 2 97.44413775 6.29914540 0.0
859 2 98.55748257 6.29914924 0.0
860 2 99.67082901 6.29915456 0.0
861 2 100.78417738 6.29916199 0.0
862 2 101.89752616 6.29917309 0.0
863 2 103.01087752 6.29918751 0.0
864 2 104.12423074 6.29920456 0.0
865 2 105.23758729 6.29922412 0.0
866 2 106.35094360 6.29924638 0.0
867 2 107.46430359 6.29927131 0.0
868 2 108.57766515 6.29929915 0.0
869 2 109.69103077 6.29933108 0.0
870 2 110.80439877 6.29936804 0.0
871 2 111.91776937 6.29941059 0.0
872 2 113.03114264 6.29945940 0.0
873 2 114.14452050 6.29951471 0.0
874 2 115.25790150 6.29957722 0.0
875 2 116.37128356 6.29964854 0.0
876 2 117.48466972 6.29972692 0.0
877 2 118.59805778 6.29981348 0.0
878 2 119.71145056 6.29991093 0.0
879 2 120.82484372 6.30002046 0.0
880 2 121.93824121 6.30014278 0.0
881 2 123.05163871 6.30028117 0.0
882 2 124.16503887 6.30043672 0.0
883 2 125.27843823 6.30061226 0.0
884 2 126.39183755 6.30081119 0.0
885 2 127.50523255 6.30103486 0.0
886 2 128.61862227 6.30128812 0.0
887 2 129.73200444 6.30157827 0.0
888 2 130.84537449 6.30191178 0.0
889 2 131.95872882 6.30229789 0.0
890 2 133.07206344 6.30274753 0.0
891 2 134.18536974 6.30327896 0.0
892 2 135.29864360 6.30391121 0.0
893 2 136.41187966 6.30466637 0.0
894 2 137.52507680 6.30557654 0.0
895 2 138.63824723 6.30666312 0.0
896 2 139.75142349 6.30792464 0.0
897 2 140.86467136 6.30927418 0.0
898 2 141.97806476 6.31054855 0.0
899 2 143.09846989 6.31158371 0.0
900 2 1.13942971 7.27438855 0.0
901 2 2.25439669 7.27342126 0.0