ITEM: TIMESTEP

ITEM: NUM OF ATOMS
31
ITEM: BOX BOUNDS
0.00000000 33.58832599
-1.0 1.0
-1.0 1.0
ITEM: ATOMS
 2 0.00000000 0.0 0.0
1 2 1.11961087 0.0 0.0
2 2 2.23922173 0.0 0.0
3 2 3.35883260 0.0 0.0
4 2 4.47844347 0.0 0.0
5 2 5.59805433 0.0 0.0
6 2 6.71766520 0.0 0.0
7 2 7.83727606 0.0 0.0
8 2 8.95688693 0.0 0.0
9 2 10.07649780 0.0 0.0
10 2 11.19610866 0.0 0.0
11 2 12.31571953 0.0 0.0
12 2 13.43533040 0.0 0.0
13 2 14.55494126 0.0 0.0
14 2 15.67455213 0.0 0.0
15 2 16.79416299 0.0 0.0
16 2 17.91377386 0.0 0.0
17 2 19.03338473 0.0 0.0
18 2 20.15299559 0.0 0.0
19 2 21.27260646 0.0 0.0
20 2 22.39221733 0.0 0.0
21 2 23.51182819 0.0 0.0
22 2 24.63143906 0.0 0.0
23 2 25.75104993 0.0 0.0
24 2 26.87066079 0.0 0.0
25 2 27.99027166 0.0 0.0
26 2 29.10988252 0.0 0.0
27 2 30.22949339 0.0 0.0
28 2 31.34910426 0.0 0.0
29 2 32.46871512 0.0 0.0
30 2 33.58832599 0.0 0.0
ITEM: TIMESTEP
1
ITEM: NUM OF ATOMS
31
ITEM: BOX BOUNDS
0.00000000 33.58832599
-1.0 1.0
-1.0 1.0
ITEM: ATOMS
 2 0.00000000 0.0 0.0
1 2 1.12102371 0.0 0.0
2 2 2.24064062 0.0 0.0
3 2 3.36025147 0.0 0.0
4 2 4.47986230 0.0 0.0
5 2 5.59947312 0.0 0.0
6 2 6.71908396 0.0 0.0
7 2 7.83869479 0.0 0.0
8 2 8.95830562 0.0 0.0
9 2 10.07791645 0.0 0.0
10 2 11.19752729 0.0 0.0
11 2 12.31713812 0.0 0.0
12 2 13.43674896 0.0 0.0
13 2 14.55635979 0.0 0.0
14 2 15.67597063 0.0 0.0
15 2 16.79558147 0.0 0.0
16 2 17.91519231 0.0 0.0
17 2 19.03480315 0.0 0.0
18 2 20.15441400 0.0 0.0
19 2 21.27402485 0.0 0.0
20 2 22.39363570 0.0 0.0
21 2 23.51324655 0.0 0.0
22 2 24.63285740 0.0 0.0
23 2 25.75246826 0.0 0.0
24 2 26.87207912 0.0 0.0
25 2 27.99168997 0.0 0.0
26 2 29.11130083 0.0 0.0
27 2 30.23091169 0.0 0.0
28 2 31.35052258 0.0 0.0
29 2 32.47013952 0.0 0.0
30 2 33.59116327 0.0 0.0
