LAMMPS (1 Jul 2012)
#
	
atom_style      atomic
units           metal
boundary        f f f
	                
read_data       m9l.txt
  orthogonal box = (-42.2855 -17.1176 -20) to (211.428 85.5878 20)
  1 by 1 by 1 MPI processor grid
  10763 atoms
                
newton on
pair_style      lj/cut 2.3 
pair_coeff      * * 1 1
                              
neighbor        0.7 bin

thermo 	1

minimize 0.00000001 0.00000001 10000 10000
WARNING: Resetting reneighboring criteria during minimization (min.cpp:173)
Memory usage per processor = 6.34481 Mbytes
Step Temp E_pair E_mol TotEng Press 
       0            0   -35079.501            0   -35079.501   -9876.5859 
       1            0   -35081.893            0   -35081.893   -9585.7728 
       2            0   -35083.935            0   -35083.935   -9327.0299 
       3            0   -35085.975            0   -35085.975    -9105.094 
       4            0   -35087.968            0   -35087.968   -8879.4701 
       5            0   -35089.463            0   -35089.463    -8783.772 
       6            0   -35090.498            0   -35090.498   -8739.5131 
       7            0   -35091.991            0   -35091.991   -8656.3174 
       8            0   -35093.546            0   -35093.546   -8578.8718 
       9            0   -35095.056            0   -35095.056    -8438.609 
      10            0   -35097.241            0   -35097.241   -8205.9966 
      11            0   -35099.646            0   -35099.646   -7936.2802 
      12            0     -35101.4            0     -35101.4    -7660.874 
      13            0   -35102.799            0   -35102.799   -7549.5573 
      14            0   -35103.516            0   -35103.516   -7536.8785 
      15            0   -35104.021            0   -35104.021   -7529.3957 
      16            0   -35104.805            0   -35104.805   -7496.5714 
      17            0   -35105.483            0   -35105.483   -7443.7502 
      18            0   -35106.108            0   -35106.108    -7410.376 
      19            0   -35106.895            0   -35106.895   -7328.3013 
      20            0   -35107.354            0   -35107.354   -7227.4989 
      21            0   -35108.011            0   -35108.011   -7221.8839 
      22            0   -35108.563            0   -35108.563   -7246.0159 
      23            0   -35108.858            0   -35108.858      -7263.6 
      24            0   -35109.227            0   -35109.227   -7274.5478 
      25            0   -35109.546            0   -35109.546   -7252.5814 
      26            0     -35110.5            0     -35110.5    -7148.008 
      27            0   -35111.678            0   -35111.678   -7047.4883 
      28            0   -35113.575            0   -35113.575   -6862.6168 
      29            0   -35115.265            0   -35115.265    -6617.128 
      30            0   -35117.824            0   -35117.824   -6384.5511 
      31            0   -35120.738            0   -35120.738   -6148.7541 
      32            0   -35121.532            0   -35121.532   -6127.5567 
      33            0   -35121.951            0   -35121.951   -6125.3201 
      34            0   -35122.191            0   -35122.191   -6117.7124 
      35            0   -35122.616            0   -35122.616   -6098.0091 
      36            0   -35122.878            0   -35122.878   -6077.2236 
      37            0   -35123.199            0   -35123.199    -6023.245 
      38            0   -35123.486            0   -35123.486   -5967.5099 
      39            0   -35123.945            0   -35123.945   -5847.1208 
      40            0   -35124.458            0   -35124.458   -5796.4708 
      41            0   -35125.134            0   -35125.134   -5783.8238 
      42            0   -35125.552            0   -35125.552   -5781.3322 
      43            0   -35125.854            0   -35125.854   -5778.1864 
      44            0   -35126.066            0   -35126.066   -5763.7358 
      45            0   -35126.683            0   -35126.683   -5689.7243 
      46            0   -35127.832            0   -35127.832   -5495.1101 
      47            0   -35129.772            0   -35129.772   -4982.5059 
      48            0    -35132.41            0    -35132.41   -4743.4683 
      49            0   -35133.719            0   -35133.719   -4661.2131 
      50            0   -35134.892            0   -35134.892    -4560.482 
      51            0   -35135.639            0   -35135.639   -4531.5038 
      52            0   -35135.992            0   -35135.992   -4509.0282 
      53            0   -35136.485            0   -35136.485   -4471.3438 
      54            0   -35136.764            0   -35136.764    -4461.668 
      55            0   -35136.926            0   -35136.926   -4456.7254 
      56            0   -35137.059            0   -35137.059   -4458.0146 
      57            0   -35137.201            0   -35137.201   -4460.6952 
      58            0   -35137.285            0   -35137.285   -4458.9206 
      59            0   -35137.429            0   -35137.429    -4447.752 
      60            0   -35137.589            0   -35137.589   -4431.1721 
      61            0   -35137.706            0   -35137.706   -4419.6713 
      62            0     -35137.9            0     -35137.9   -4393.3262 
      63            0   -35138.193            0   -35138.193   -4359.8791 
      64            0    -35138.41            0    -35138.41   -4339.7195 
      65            0   -35138.526            0   -35138.526    -4326.893 
      66            0    -35138.75            0    -35138.75   -4293.2918 
      67            0   -35139.028            0   -35139.028   -4254.0736 
      68            0   -35139.261            0   -35139.261   -4201.5594 
      69            0   -35139.512            0   -35139.512   -4068.8042 
      70            0   -35140.345            0   -35140.345   -3949.3107 
      71            0   -35140.879            0   -35140.879    -3907.303 
      72            0   -35140.986            0   -35140.986     -3886.51 
      73            0   -35141.085            0   -35141.085   -3880.1076 
      74            0   -35141.124            0   -35141.124   -3878.7529 
      75            0    -35141.17            0    -35141.17   -3875.7013 
      76            0   -35141.233            0   -35141.233   -3871.8222 
      77            0   -35141.296            0   -35141.296   -3866.4248 
      78            0   -35141.432            0   -35141.432   -3851.1049 
      79            0   -35141.775            0   -35141.775   -3794.4231 
      80            0   -35142.186            0   -35142.186   -3721.5663 
      81            0   -35142.366            0   -35142.366   -3701.2063 
      82            0   -35142.492            0   -35142.492   -3671.9096 
      83            0    -35142.77            0    -35142.77   -3612.7837 
      84            0   -35143.076            0   -35143.076    -3570.924 
      85            0   -35143.274            0   -35143.274   -3536.1085 
      86            0   -35143.426            0   -35143.426   -3511.1823 
      87            0   -35143.493            0   -35143.493   -3499.3213 
      88            0   -35143.528            0   -35143.528   -3485.8291 
      89            0   -35143.572            0   -35143.572   -3464.4579 
      90            0   -35143.639            0   -35143.639    -3461.066 
      91            0    -35143.68            0    -35143.68   -3466.1177 
      92            0     -35143.7            0     -35143.7   -3466.3598 
      93            0   -35143.758            0   -35143.758     -3460.81 
      94            0   -35143.842            0   -35143.842   -3444.2681 
      95            0   -35144.039            0   -35144.039   -3402.3042 
      96            0   -35144.345            0   -35144.345   -3321.5221 
      97            0   -35144.943            0   -35144.943    -3142.917 
      98            0   -35145.689            0   -35145.689    -3072.382 
      99            0   -35145.921            0   -35145.921   -3062.8523 
     100            0   -35146.044            0   -35146.044   -3051.7133 
     101            0   -35146.135            0   -35146.135   -3031.0296 
     102            0   -35146.251            0   -35146.251   -3006.4989 
     103            0    -35146.33            0    -35146.33   -2986.2516 
     104            0   -35146.389            0   -35146.389   -2963.0077 
     105            0   -35146.457            0   -35146.457   -2943.6384 
     106            0   -35146.517            0   -35146.517   -2923.8501 
     107            0   -35146.567            0   -35146.567   -2918.1188 
     108            0   -35146.609            0   -35146.609   -2903.5343 
     109            0   -35146.635            0   -35146.635   -2892.1771 
     110            0   -35146.701            0   -35146.701   -2871.4699 
     111            0   -35146.773            0   -35146.773    -2854.611 
     112            0   -35146.965            0   -35146.965    -2781.134 
     113            0   -35147.239            0   -35147.239   -2698.6164 
     114            0   -35147.473            0   -35147.473   -2676.4337 
     115            0   -35147.539            0   -35147.539   -2671.3549 
     116            0   -35147.579            0   -35147.579   -2667.6796 
     117            0   -35147.619            0   -35147.619   -2663.6339 
     118            0   -35147.672            0   -35147.672   -2660.1401 
     119            0   -35147.726            0   -35147.726    -2656.059 
     120            0   -35147.771            0   -35147.771   -2650.2567 
     121            0   -35147.811            0   -35147.811    -2640.641 
     122            0   -35147.845            0   -35147.845   -2631.2456 
     123            0   -35147.882            0   -35147.882   -2631.8531 
     124            0   -35147.929            0   -35147.929   -2629.9538 
     125            0   -35147.972            0   -35147.972   -2622.9578 
     126            0   -35148.016            0   -35148.016   -2613.6861 
     127            0   -35148.034            0   -35148.034    -2607.885 
     128            0   -35148.054            0   -35148.054   -2601.6849 
     129            0   -35148.084            0   -35148.084   -2599.8379 
     130            0   -35148.111            0   -35148.111   -2598.5345 
     131            0    -35148.14            0    -35148.14   -2592.4386 
     132            0   -35148.182            0   -35148.182   -2578.6956 
     133            0   -35148.249            0   -35148.249   -2566.1537 
     134            0   -35148.328            0   -35148.328   -2546.3727 
     135            0   -35148.361            0   -35148.361    -2540.397 
     136            0   -35148.405            0   -35148.405   -2531.5388 
     137            0    -35148.55            0    -35148.55    -2505.699 
     138            0   -35148.643            0   -35148.643   -2492.3806 
     139            0   -35148.704            0   -35148.704    -2475.848 
     140            0   -35148.726            0   -35148.726   -2465.3425 
     141            0   -35148.764            0   -35148.764   -2464.3629 
     142            0   -35148.781            0   -35148.781   -2462.1194 
     143            0   -35148.796            0   -35148.796   -2458.1944 
     144            0   -35148.812            0   -35148.812   -2452.9678 
     145            0   -35148.856            0   -35148.856   -2436.1527 
     146            0   -35148.912            0   -35148.912   -2415.6372 
     147            0   -35148.982            0   -35148.982   -2404.6569 
     148            0   -35149.049            0   -35149.049   -2393.7091 
     149            0   -35149.086            0   -35149.086   -2387.5564 
     150            0   -35149.118            0   -35149.118   -2383.0317 
     151            0   -35149.135            0   -35149.135   -2380.2273 
     152            0   -35149.173            0   -35149.173   -2372.8751 
     153            0   -35149.249            0   -35149.249   -2359.8017 
     154            0    -35149.32            0    -35149.32   -2346.3862 
     155            0   -35149.453            0   -35149.453   -2342.2805 
     156            0   -35149.479            0   -35149.479   -2337.4042 
     157            0   -35149.522            0   -35149.522    -2315.256 
     158            0    -35149.59            0    -35149.59   -2289.9738 
     159            0   -35149.642            0   -35149.642   -2268.1771 
     160            0    -35149.68            0    -35149.68   -2261.8473 
     161            0   -35149.697            0   -35149.697   -2261.8703 
     162            0   -35149.719            0   -35149.719   -2262.1592 
     163            0   -35149.747            0   -35149.747   -2259.2887 
     164            0   -35149.816            0   -35149.816   -2246.5704 
     165            0   -35149.902            0   -35149.902   -2233.9438 
     166            0   -35149.987            0   -35149.987   -2230.4817 
     167            0   -35150.021            0   -35150.021   -2226.1911 
     168            0   -35150.047            0   -35150.047   -2219.2216 
     169            0   -35150.095            0   -35150.095   -2194.7577 
     170            0   -35150.113            0   -35150.113   -2180.6764 
     171            0   -35150.122            0   -35150.122   -2181.9803 
     172            0   -35150.136            0   -35150.136   -2183.9391 
     173            0   -35150.151            0   -35150.151   -2185.2792 
     174            0   -35150.189            0   -35150.189   -2186.1865 
     175            0   -35150.234            0   -35150.234   -2182.8748 
     176            0   -35150.295            0   -35150.295   -2168.7758 
     177            0   -35150.402            0   -35150.402   -2132.0141 
     178            0   -35150.691            0   -35150.691    -1979.065 
     179            0   -35151.236            0   -35151.236   -1690.1173 
     180            0   -35152.029            0   -35152.029   -1428.7861 
     181            0   -35152.917            0   -35152.917    -1207.502 
     182            0   -35153.846            0   -35153.846   -996.09069 
     183            0    -35154.68            0    -35154.68   -783.29095 
     184            0   -35155.349            0   -35155.349   -572.21924 
     185            0   -35155.853            0   -35155.853   -355.58319 
     186            0   -35156.147            0   -35156.147   -302.88288 
     187            0   -35156.277            0   -35156.277   -282.10797 
     188            0   -35156.397            0   -35156.397   -256.70271 
     189            0   -35156.476            0   -35156.476   -241.34707 
     190            0   -35156.516            0   -35156.516   -224.13426 
     191            0   -35156.543            0   -35156.543   -223.52593 
     192            0   -35156.555            0   -35156.555   -225.43774 
     193            0   -35156.562            0   -35156.562   -227.17619 
     194            0    -35156.58            0    -35156.58   -230.06548 
     195            0   -35156.609            0   -35156.609   -234.18135 
     196            0   -35156.636            0   -35156.636    -239.4734 
     197            0   -35156.675            0   -35156.675   -242.74337 
     198            0   -35156.701            0   -35156.701   -248.20708 
     199            0   -35156.717            0   -35156.717    -252.8129 
     200            0   -35156.746            0   -35156.746   -265.19983 
     201            0   -35156.761            0   -35156.761   -269.72722 
     202            0   -35156.776            0   -35156.776   -276.89052 
     203            0   -35156.793            0   -35156.793    -291.7576 
     204            0    -35156.83            0    -35156.83   -301.50708 
     205            0   -35156.869            0   -35156.869   -310.76952 
     206            0   -35156.887            0   -35156.887   -314.98997 
     207            0   -35156.906            0   -35156.906   -318.12768 
     208            0   -35156.919            0   -35156.919   -317.48221 
     209            0   -35156.931            0   -35156.931   -316.69816 
     210            0   -35156.943            0   -35156.943   -318.17797 
     211            0   -35156.963            0   -35156.963   -324.70426 
     212            0   -35157.016            0   -35157.016   -334.16966 
     213            0   -35157.066            0   -35157.066   -348.23434 
     214            0   -35157.158            0   -35157.158   -383.59985 
     215            0   -35157.233            0   -35157.233   -397.81921 
     216            0   -35157.268            0   -35157.268   -399.24299 
     217            0    -35157.29            0    -35157.29   -401.77746 
     218            0   -35157.309            0   -35157.309   -407.41815 
     219            0   -35157.318            0   -35157.318   -413.82929 
     220            0   -35157.335            0   -35157.335   -422.81895 
     221            0   -35157.348            0   -35157.348   -426.60998 
     222            0   -35157.356            0   -35157.356   -429.91175 
     223            0   -35157.368            0   -35157.368   -433.58856 
     224            0   -35157.384            0   -35157.384   -439.24032 
     225            0   -35157.404            0   -35157.404   -453.01934 
     226            0   -35157.456            0   -35157.456    -467.0637 
     227            0   -35157.488            0   -35157.488    -471.3458 
     228            0     -35157.5            0     -35157.5   -473.99479 
     229            0   -35157.507            0   -35157.507   -476.03386 
     230            0   -35157.513            0   -35157.513   -477.93893 
     231            0   -35157.524            0   -35157.524   -479.14709 
     232            0   -35157.536            0   -35157.536   -481.03098 
     233            0   -35157.559            0   -35157.559   -485.68976 
     234            0   -35157.581            0   -35157.581   -487.58178 
     235            0    -35157.59            0    -35157.59   -487.84481 
     236            0   -35157.609            0   -35157.609   -489.00447 
     237            0   -35157.649            0   -35157.649   -492.59041 
     238            0   -35157.667            0   -35157.667   -496.08828 
     239            0   -35157.681            0   -35157.681   -502.57759 
     240            0   -35157.704            0   -35157.704   -511.01271 
     241            0   -35157.731            0   -35157.731   -529.99983 
     242            0    -35157.76            0    -35157.76    -538.9646 
     243            0   -35157.773            0   -35157.773   -538.67453 
     244            0   -35157.777            0   -35157.777   -538.32183 
     245            0    -35157.78            0    -35157.78   -538.31969 
     246            0     -35157.8            0     -35157.8   -540.84276 
     247            0    -35157.81            0    -35157.81   -543.51743 
     248            0   -35157.824            0   -35157.824   -548.01536 
     249            0   -35157.834            0   -35157.834   -549.49438 
     250            0   -35157.846            0   -35157.846    -550.6291 
     251            0    -35157.86            0    -35157.86   -553.33239 
     252            0   -35157.884            0   -35157.884   -561.18619 
     253            0   -35157.896            0   -35157.896   -569.97934 
     254            0   -35157.926            0   -35157.926   -573.18697 
     255            0    -35157.95            0    -35157.95   -574.40465 
     256            0   -35157.969            0   -35157.969   -576.76383 
     257            0   -35157.986            0   -35157.986   -580.16079 
     258            0   -35157.994            0   -35157.994    -582.8889 
     259            0       -35158            0       -35158   -586.23466 
     260            0   -35158.003            0   -35158.003   -587.04557 
     261            0   -35158.007            0   -35158.007   -588.89489 
     262            0   -35158.012            0   -35158.012   -591.61463 
     263            0   -35158.023            0   -35158.023   -593.22556 
     264            0   -35158.029            0   -35158.029   -594.07065 
     265            0   -35158.033            0   -35158.033   -594.19234 
     266            0   -35158.044            0   -35158.044    -593.3901 
     267            0   -35158.055            0   -35158.055   -593.31536 
     268            0    -35158.07            0    -35158.07   -595.64918 
     269            0    -35158.08            0    -35158.08   -598.55491 
     270            0   -35158.095            0   -35158.095   -608.66371 
     271            0   -35158.108            0   -35158.108   -614.66867 
     272            0   -35158.122            0   -35158.122   -616.38634 
     273            0   -35158.133            0   -35158.133   -616.51897 
     274            0   -35158.142            0   -35158.142   -616.41265 
     275            0   -35158.148            0   -35158.148   -616.08213 
     276            0   -35158.156            0   -35158.156   -614.89109 
     277            0   -35158.164            0   -35158.164   -614.63667 
     278            0   -35158.185            0   -35158.185   -619.78334 
     279            0   -35158.211            0   -35158.211   -633.02933 
     280            0   -35158.258            0   -35158.258    -641.6628 
     281            0   -35158.326            0   -35158.326    -651.7637 
     282            0   -35158.351            0   -35158.351   -652.90034 
     283            0   -35158.363            0   -35158.363   -653.59136 
     284            0   -35158.367            0   -35158.367   -654.25167 
     285            0    -35158.37            0    -35158.37   -654.59707 
     286            0   -35158.373            0   -35158.373   -655.28671 
     287            0   -35158.375            0   -35158.375   -655.66724 
     288            0   -35158.381            0   -35158.381   -657.66848 
     289            0   -35158.389            0   -35158.389   -661.25528 
     290            0   -35158.405            0   -35158.405   -664.94045 
     291            0   -35158.421            0   -35158.421   -668.80483 
     292            0   -35158.437            0   -35158.437    -668.9146 
     293            0   -35158.442            0   -35158.442    -667.6082 
     294            0   -35158.445            0   -35158.445   -666.32464 
     295            0    -35158.45            0    -35158.45   -664.37258 
     296            0   -35158.453            0   -35158.453   -664.31473 
     297            0   -35158.456            0   -35158.456   -664.91556 
     298            0   -35158.458            0   -35158.458   -666.04676 
     299            0   -35158.461            0   -35158.461   -667.57973 
     300            0   -35158.466            0   -35158.466   -668.18878 
     301            0   -35158.474            0   -35158.474   -668.74607 
     302            0   -35158.484            0   -35158.484   -669.44062 
     303            0   -35158.492            0   -35158.492   -670.19164 
     304            0   -35158.502            0   -35158.502   -671.13134 
     305            0   -35158.518            0   -35158.518   -672.36299 
     306            0    -35158.54            0    -35158.54   -674.42675 
     307            0   -35158.568            0   -35158.568   -675.80345 
     308            0   -35158.574            0   -35158.574   -676.53884 
     309            0   -35158.578            0   -35158.578    -677.6124 
     310            0    -35158.58            0    -35158.58   -678.53199 
     311            0   -35158.582            0   -35158.582   -679.17325 
     312            0   -35158.583            0   -35158.583   -679.02401 
     313            0   -35158.587            0   -35158.587   -677.54665 
     314            0   -35158.591            0   -35158.591   -677.26501 
     315            0   -35158.603            0   -35158.603   -679.63149 
     316            0   -35158.609            0   -35158.609   -680.71696 
     317            0   -35158.616            0   -35158.616   -681.82601 
     318            0   -35158.621            0   -35158.621   -682.13937 
     319            0   -35158.631            0   -35158.631   -681.77649 
     320            0   -35158.649            0   -35158.649   -680.90549 
     321            0   -35158.667            0   -35158.667   -681.38131 
     322            0   -35158.685            0   -35158.685   -683.27385 
     323            0   -35158.694            0   -35158.694   -685.06381 
     324            0   -35158.698            0   -35158.698   -687.35261 
     325            0   -35158.702            0   -35158.702   -687.86372 
     326            0   -35158.705            0   -35158.705    -687.1831 
     327            0   -35158.708            0   -35158.708   -686.38953 
     328            0   -35158.709            0   -35158.709   -685.91583 
     329            0   -35158.716            0   -35158.716   -685.36031 
     330            0   -35158.787            0   -35158.787   -684.11938 
     331            0   -35158.887            0   -35158.887   -683.70406 
     332            0     -35159.1            0     -35159.1   -689.83414 
     333            0   -35159.484            0   -35159.484   -715.53085 
     334            0   -35159.825            0   -35159.825   -730.72264 
     335            0   -35159.893            0   -35159.893   -732.46262 
     336            0   -35159.905            0   -35159.905   -732.85974 
     337            0   -35159.909            0   -35159.909   -733.41114 
     338            0   -35159.913            0   -35159.913   -734.16763 
     339            0   -35159.916            0   -35159.916   -734.75965 
     340            0   -35159.918            0   -35159.918   -734.69958 
     341            0    -35159.92            0    -35159.92   -733.91119 
     342            0   -35159.923            0   -35159.923   -732.65797 
     343            0   -35159.925            0   -35159.925   -731.82305 
     344            0   -35159.927            0   -35159.927   -729.67381 
     345            0   -35159.933            0   -35159.933   -723.01973 
     346            0   -35159.954            0   -35159.954   -682.94531 
     347            0   -35159.963            0   -35159.963   -657.28091 
     348            0   -35159.985            0   -35159.985   -648.99902 
     349            0   -35159.998            0   -35159.998   -644.36707 
     350            0   -35160.009            0   -35160.009   -641.43202 
     351            0   -35160.018            0   -35160.018   -640.47815 
     352            0   -35160.021            0   -35160.021   -641.42508 
     353            0   -35160.023            0   -35160.023   -642.82828 
     354            0   -35160.027            0   -35160.027   -644.55933 
     355            0   -35160.029            0   -35160.029   -645.53602 
     356            0    -35160.03            0    -35160.03   -646.15291 
     357            0   -35160.036            0   -35160.036   -648.08875 
     358            0   -35160.038            0   -35160.038   -647.90379 
     359            0   -35160.039            0   -35160.039   -646.96436 
     360            0   -35160.041            0   -35160.041   -644.27035 
     361            0   -35160.045            0   -35160.045   -634.13458 
     362            0   -35160.048            0   -35160.048   -624.08039 
     363            0   -35160.051            0   -35160.051   -619.98163 
     364            0   -35160.057            0   -35160.057    -616.0235 
     365            0   -35160.061            0   -35160.061   -613.76646 
     366            0   -35160.064            0   -35160.064   -614.53647 
     367            0   -35160.067            0   -35160.067   -616.03849 
     368            0   -35160.068            0   -35160.068   -616.60742 
     369            0    -35160.07            0    -35160.07   -618.25198 
     370            0   -35160.072            0   -35160.072   -620.44285 
     371            0   -35160.074            0   -35160.074   -620.13396 
     372            0   -35160.077            0   -35160.077   -619.08738 
     373            0   -35160.079            0   -35160.079    -618.4621 
     374            0   -35160.082            0   -35160.082   -616.47773 
     375            0   -35160.086            0   -35160.086   -613.39133 
     376            0   -35160.089            0   -35160.089   -609.81392 
     377            0   -35160.092            0   -35160.092   -607.09676 
     378            0   -35160.094            0   -35160.094   -603.90741 
     379            0   -35160.097            0   -35160.097   -600.59761 
     380            0     -35160.1            0     -35160.1   -596.28725 
     381            0   -35160.105            0   -35160.105    -588.4839 
     382            0   -35160.112            0   -35160.112   -585.62683 
     383            0   -35160.114            0   -35160.114   -585.56785 
     384            0   -35160.115            0   -35160.115     -585.677 
     385            0   -35160.116            0   -35160.116   -585.71144 
     386            0   -35160.117            0   -35160.117   -585.73101 
     387            0   -35160.118            0   -35160.118   -585.95208 
     388            0   -35160.122            0   -35160.122   -586.77555 
     389            0   -35160.125            0   -35160.125     -586.204 
     390            0   -35160.126            0   -35160.126   -585.44778 
     391            0   -35160.127            0   -35160.127   -584.46093 
     392            0   -35160.128            0   -35160.128   -582.97531 
     393            0   -35160.131            0   -35160.131   -579.33375 
     394            0   -35160.134            0   -35160.134   -574.56482 
     395            0   -35160.135            0   -35160.135   -573.74346 
     396            0   -35160.135            0   -35160.135   -573.69972 
     397            0   -35160.136            0   -35160.136   -573.82482 
     398            0    -35160.14            0    -35160.14   -574.56977 
     399            0   -35160.142            0   -35160.142   -574.51769 
     400            0   -35160.143            0   -35160.143   -573.32409 
     401            0   -35160.146            0   -35160.146   -570.69468 
     402            0   -35160.149            0   -35160.149   -568.76263 
     403            0    -35160.15            0    -35160.15   -567.34714 
     404            0   -35160.151            0   -35160.151   -565.15404 
     405            0   -35160.153            0   -35160.153   -563.50429 
     406            0   -35160.155            0   -35160.155   -561.68675 
     407            0   -35160.156            0   -35160.156    -560.5299 
     408            0    -35160.16            0    -35160.16   -558.36344 
     409            0   -35160.165            0   -35160.165   -555.49951 
     410            0   -35160.171            0   -35160.171   -550.89285 
     411            0   -35160.184            0   -35160.184   -539.12474 
     412            0   -35160.226            0   -35160.226   -483.64364 
     413            0   -35160.288            0   -35160.288   -368.34708 
     414            0   -35160.376            0   -35160.376   -312.47616 
     415            0   -35160.433            0   -35160.433   -304.13998 
     416            0   -35160.463            0   -35160.463   -300.27151 
     417            0   -35160.477            0   -35160.477   -297.67381 
     418            0   -35160.485            0   -35160.485   -295.63707 
     419            0   -35160.493            0   -35160.493   -292.48449 
     420            0   -35160.496            0   -35160.496   -290.19068 
     421            0   -35160.497            0   -35160.497   -287.24782 
     422            0   -35160.498            0   -35160.498   -287.34743 
     423            0   -35160.498            0   -35160.498   -287.76139 
     424            0   -35160.499            0   -35160.499   -288.47393 
     425            0     -35160.5            0     -35160.5   -289.42099 
     426            0   -35160.501            0   -35160.501   -291.02318 
     427            0   -35160.504            0   -35160.504   -292.33979 
     428            0   -35160.508            0   -35160.508   -293.92438 
     429            0   -35160.513            0   -35160.513   -294.19686 
     430            0   -35160.516            0   -35160.516   -293.56259 
     431            0   -35160.518            0   -35160.518   -292.55532 
     432            0   -35160.522            0   -35160.522   -291.66892 
     433            0   -35160.524            0   -35160.524   -290.98854 
     434            0   -35160.527            0   -35160.527    -290.6173 
     435            0   -35160.528            0   -35160.528    -290.6916 
     436            0    -35160.53            0    -35160.53   -292.00086 
     437            0   -35160.532            0   -35160.532    -294.1511 
     438            0   -35160.535            0   -35160.535   -294.92527 
     439            0   -35160.536            0   -35160.536   -294.83935 
     440            0   -35160.538            0   -35160.538   -294.01487 
     441            0   -35160.539            0   -35160.539   -293.51067 
     442            0    -35160.54            0    -35160.54   -293.72205 
     443            0    -35160.54            0    -35160.54   -293.96297 
     444            0   -35160.541            0   -35160.541   -294.07699 
     445            0   -35160.541            0   -35160.541   -294.11104 
     446            0   -35160.541            0   -35160.541   -293.82062 
     447            0   -35160.543            0   -35160.543   -292.82316 
     448            0   -35160.545            0   -35160.545   -290.60631 
     449            0   -35160.548            0   -35160.548   -289.67693 
     450            0   -35160.557            0   -35160.557   -291.17558 
     451            0   -35160.564            0   -35160.564    -292.3636 
     452            0   -35160.566            0   -35160.566   -292.31392 
     453            0   -35160.567            0   -35160.567   -292.46023 
     454            0   -35160.568            0   -35160.568   -292.96424 
     455            0   -35160.569            0   -35160.569   -293.29842 
     456            0   -35160.569            0   -35160.569   -293.51956 
     457            0   -35160.571            0   -35160.571   -294.01233 
     458            0   -35160.572            0   -35160.572   -294.48964 
     459            0   -35160.574            0   -35160.574   -294.46502 
     460            0   -35160.575            0   -35160.575   -293.65265 
     461            0   -35160.578            0   -35160.578   -291.24919 
     462            0   -35160.584            0   -35160.584   -286.02282 
     463            0   -35160.591            0   -35160.591   -284.35149 
     464            0   -35160.599            0   -35160.599    -283.7247 
     465            0   -35160.605            0   -35160.605      -283.84 
     466            0   -35160.609            0   -35160.609    -284.2791 
     467            0   -35160.614            0   -35160.614   -285.43395 
     468            0   -35160.617            0   -35160.617   -286.49221 
     469            0    -35160.62            0    -35160.62   -286.45479 
     470            0   -35160.621            0   -35160.621   -286.37046 
     471            0   -35160.621            0   -35160.621   -286.26906 
Loop time of 19.8249 on 1 procs for 471 steps with 10763 atoms

Minimization stats:
  Stopping criterion = energy tolerance
  Energy initial, next-to-last, final = 
        -35079.5012414     -35160.6206616     -35160.6210109
  Force two-norm initial, final = 14.276 0.237887
  Force max component initial, final = 0.585264 0.00980605
  Final line search alpha, max atom move = 0.0078125 7.66098e-005
  Iterations, force evaluations = 471 3355

Pair  time (%) = 18.6698 (94.1735)
Neigh time (%) = 0.0139916 (0.0705756)
Comm  time (%) = 0.00231974 (0.0117011)
Outpt time (%) = 0.165674 (0.835682)
Other time (%) = 0.973109 (4.90851)

Nlocal:    10763 ave 10763 max 10763 min
Histogram: 1 0 0 0 0 0 0 0 0 0
Nghost:    0 ave 0 max 0 min
Histogram: 1 0 0 0 0 0 0 0 0 0
Neighs:    156787 ave 156787 max 156787 min
Histogram: 1 0 0 0 0 0 0 0 0 0

Total # of neighbors = 156787
Ave neighs/atom = 14.5672
Neighbor list builds = 2
Dangerous builds = 0


