#

10763 atoms

    2 atom types

-4.228550e+001 2.114275e+002 xlo xhi
-1.711755e+001 8.558775e+001 ylo yhi
  -20    20 zlo zhi

Masses

1  1.0
2  1.0

Atoms

1 1 0 0 0
2 1 0 1.1225 0
3 1 0 2.2449 0
4 1 0 3.3674 0
5 1 0 4.4898 0
6 1 0 5.6123 0
7 1 0 6.7348 0
8 1 0 7.8572 0
9 1 0 8.9797 0
10 1 0 10.1022 0
11 1 0 11.2246 0
12 1 0 12.3471 0
13 1 0 13.4695 0
14 1 0 14.592 0
15 1 0 15.7145 0
16 1 0 16.8369 0
17 1 0 17.9594 0
18 1 0 19.0819 0
19 1 0 20.2043 0
20 1 0 21.3268 0
21 1 0 22.4492 0
22 1 0 23.5717 0
23 1 0 24.6942 0
24 1 0 25.8166 0
25 1 0 26.9391 0
26 1 0 28.0616 0
27 1 0 29.184 0
28 1 0 30.3065 0
29 1 0 31.4289 0
30 1 0 32.5514 0
31 1 0 33.6739 0
32 1 0 34.7963 0
33 1 0 35.9188 0
34 1 0 37.0412 0
35 1 0 38.1637 0
36 1 0 39.2862 0
37 1 0 40.4086 0
38 1 0 41.5311 0
39 1 0 42.6536 0
40 1 0 43.776 0
41 1 0 44.8985 0
42 1 0 46.0209 0
43 1 0 47.1434 0
44 1 0 48.2659 0
45 1 0 49.3883 0
46 1 0 50.5108 0
47 1 0 51.6333 0
48 1 0 52.7557 0
49 1 0 53.8782 0
50 1 0 55.0006 0
51 1 0 56.1231 0
52 1 0 57.2456 0
53 1 0 58.368 0
54 1 0 59.4905 0
55 1 0 60.613 0
56 1 0 61.7354 0
57 1 0 62.8579 0
58 1 0 63.9803 0
59 1 0 65.1028 0
60 1 0 66.2253 0
61 1 0 67.3477 0
62 1 0 68.4702 0
63 1 0.9721 0.5612 0
64 1 0.9721 1.6837 0
65 1 0.9721 2.8062 0
66 1 0.9721 3.9286 0
67 1 0.9721 5.0511 0
68 1 0.9721 6.1735 0
69 1 0.9721 7.296 0
70 1 0.9721 8.4185 0
71 1 0.9721 9.5409 0
72 1 0.9721 10.6634 0
73 1 0.9721 11.7859 0
74 1 0.9721 12.9083 0
75 1 0.9721 14.0308 0
76 1 0.9721 15.1532 0
77 1 0.9721 16.2757 0
78 1 0.9721 17.3982 0
79 1 0.9721 18.5206 0
80 1 0.9721 19.6431 0
81 1 0.9721 20.7655 0
82 1 0.9721 21.888 0
83 1 0.9721 23.0105 0
84 1 0.9721 24.1329 0
85 1 0.9721 25.2554 0
86 1 0.9721 26.3779 0
87 1 0.9721 27.5003 0
88 1 0.9721 28.6228 0
89 1 0.9721 29.7452 0
90 1 0.9721 30.8677 0
91 1 0.9721 31.9902 0
92 1 0.9721 33.1126 0
93 1 0.9721 34.2351 0
94 1 0.9721 35.3576 0
95 1 0.9721 36.48 0
96 1 0.9721 37.6025 0
97 1 0.9721 38.7249 0
98 1 0.9721 39.8474 0
99 1 0.9721 40.9699 0
100 1 0.9721 42.0923 0
101 1 0.9721 43.2148 0
102 1 0.9721 44.3373 0
103 1 0.9721 45.4597 0
104 1 0.9721 46.5822 0
105 1 0.9721 47.7046 0
106 1 0.9721 48.8271 0
107 1 0.9721 49.9496 0
108 1 0.9721 51.072 0
109 1 0.9721 52.1945 0
110 1 0.9721 53.3169 0
111 1 0.9721 54.4394 0
112 1 0.9721 55.5619 0
113 1 0.9721 56.6843 0
114 1 0.9721 57.8068 0
115 1 0.9721 58.9293 0
116 1 0.9721 60.0517 0
117 1 0.9721 61.1742 0
118 1 0.9721 62.2966 0
119 1 0.9721 63.4191 0
120 1 0.9721 64.5416 0
121 1 0.9721 65.664 0
122 1 0.9721 66.7865 0
123 1 0.9721 67.909 0
124 1 1.9442 0 0
125 1 1.9442 1.1225 0
126 1 1.9442 2.2449 0
127 1 1.9442 3.3674 0
128 1 1.9442 4.4898 0
129 1 1.9442 5.6123 0
130 1 1.9442 6.7348 0
131 1 1.9442 7.8572 0
132 1 1.9442 8.9797 0
133 1 1.9442 10.1022 0
134 1 1.9442 11.2246 0
135 1 1.9442 12.3471 0
136 1 1.9442 13.4695 0
137 1 1.9442 14.592 0
138 1 1.9442 15.7145 0
139 1 1.9442 16.8369 0
140 1 1.9442 17.9594 0
141 1 1.9442 19.0819 0
142 1 1.9442 20.2043 0
143 1 1.9442 21.3268 0
144 1 1.9442 22.4492 0
145 1 1.9442 23.5717 0
146 1 1.9442 24.6942 0
147 1 1.9442 25.8166 0
148 1 1.9442 26.9391 0
149 1 1.9442 28.0616 0
150 1 1.9442 29.184 0
151 1 1.9442 30.3065 0
152 1 1.9442 31.4289 0
153 1 1.9442 32.5514 0
154 1 1.9442 33.6739 0
155 1 1.9442 34.7963 0
156 1 1.9442 35.9188 0
157 1 1.9442 37.0412 0
158 1 1.9442 38.1637 0
159 1 1.9442 39.2862 0
160 1 1.9442 40.4086 0
161 1 1.9442 41.5311 0
162 1 1.9442 42.6536 0
163 1 1.9442 43.776 0
164 1 1.9442 44.8985 0
165 1 1.9442 46.0209 0
166 1 1.9442 47.1434 0
167 1 1.9442 48.2659 0
168 1 1.9442 49.3883 0
169 1 1.9442 50.5108 0
170 1 1.9442 51.6333 0
171 1 1.9442 52.7557 0
172 1 1.9442 53.8782 0
173 1 1.9442 55.0006 0
174 1 1.9442 56.1231 0
175 1 1.9442 57.2456 0
176 1 1.9442 58.368 0
177 1 1.9442 59.4905 0
178 1 1.9442 60.613 0
179 1 1.9442 61.7354 0
180 1 1.9442 62.8579 0
181 1 1.9442 63.9803 0
182 1 1.9442 65.1028 0
183 1 1.9442 66.2253 0
184 1 1.9442 67.3477 0
185 1 1.9442 68.4702 0
186 1 2.9162 0.5612 0
187 1 2.9162 1.6837 0
188 1 2.9162 2.8062 0
189 1 2.9162 3.9286 0
190 1 2.9162 5.0511 0
191 1 2.9162 6.1735 0
192 1 2.9162 7.296 0
193 1 2.9162 8.4185 0
194 1 2.9162 9.5409 0
195 1 2.9162 10.6634 0
196 1 2.9162 11.7859 0
197 1 2.9162 12.9083 0
198 1 2.9162 14.0308 0
199 1 2.9162 15.1532 0
200 1 2.9162 16.2757 0
201 1 2.9162 17.3982 0
202 1 2.9162 18.5206 0
203 1 2.9162 19.6431 0
204 1 2.9162 20.7655 0
205 1 2.9162 21.888 0
206 1 2.9162 23.0105 0
207 1 2.9162 24.1329 0
208 1 2.9162 25.2554 0
209 1 2.9162 26.3779 0
210 1 2.9162 27.5003 0
211 1 2.9162 28.6228 0
212 1 2.9162 29.7452 0
213 1 2.9162 30.8677 0
214 1 2.9162 31.9902 0
215 1 2.9162 33.1126 0
216 1 2.9162 34.2351 0
217 1 2.9162 35.3576 0
218 1 2.9162 36.48 0
219 1 2.9162 37.6025 0
220 1 2.9162 38.7249 0
221 1 2.9162 39.8474 0
222 1 2.9162 40.9699 0
223 1 2.9162 42.0923 0
224 1 2.9162 43.2148 0
225 1 2.9162 44.3373 0
226 1 2.9162 45.4597 0
227 1 2.9162 46.5822 0
228 1 2.9162 47.7046 0
229 1 2.9162 48.8271 0
230 1 2.9162 49.9496 0
231 1 2.9162 51.072 0
232 1 2.9162 52.1945 0
233 1 2.9162 53.3169 0
234 1 2.9162 54.4394 0
235 1 2.9162 55.5619 0
236 1 2.9162 56.6843 0
237 1 2.9162 57.8068 0
238 1 2.9162 58.9293 0
239 1 2.9162 60.0517 0
240 1 2.9162 61.1742 0
241 1 2.9162 62.2966 0
242 1 2.9162 63.4191 0
243 1 2.9162 64.5416 0
244 1 2.9162 65.664 0
245 1 2.9162 66.7865 0
246 1 2.9162 67.909 0
247 1 3.8883 0 0
248 1 3.8883 1.1225 0
249 1 3.8883 2.2449 0
250 1 3.8883 3.3674 0
251 1 3.8883 4.4898 0
252 1 3.8883 5.6123 0
253 1 3.8883 6.7348 0
254 1 3.8883 7.8572 0
255 1 3.8883 8.9797 0
256 1 3.8883 10.1022 0
257 1 3.8883 11.2246 0
258 1 3.8883 12.3471 0
259 1 3.8883 13.4695 0
260 1 3.8883 14.592 0
261 1 3.8883 15.7145 0
262 1 3.8883 16.8369 0
263 1 3.8883 17.9594 0
264 1 3.8883 19.0819 0
265 1 3.8883 20.2043 0
266 1 3.8883 21.3268 0
267 1 3.8883 22.4492 0
268 1 3.8883 23.5717 0
269 1 3.8883 24.6942 0
270 1 3.8883 25.8166 0
271 1 3.8883 26.9391 0
272 1 3.8883 28.0616 0
273 1 3.8883 29.184 0
274 1 3.8883 30.3065 0
275 1 3.8883 31.4289 0
276 1 3.8883 32.5514 0
277 1 3.8883 33.6739 0
278 1 3.8883 34.7963 0
279 1 3.8883 35.9188 0
280 1 3.8883 37.0412 0
281 1 3.8883 38.1637 0
282 1 3.8883 39.2862 0
283 1 3.8883 40.4086 0
284 1 3.8883 41.5311 0
285 1 3.8883 42.6536 0
286 1 3.8883 43.776 0
287 1 3.8883 44.8985 0
288 1 3.8883 46.0209 0
289 1 3.8883 47.1434 0
290 1 3.8883 48.2659 0
291 1 3.8883 49.3883 0
292 1 3.8883 50.5108 0
293 1 3.8883 51.6333 0
294 1 3.8883 52.7557 0
295 1 3.8883 53.8782 0
296 1 3.8883 55.0006 0
297 1 3.8883 56.1231 0
298 1 3.8883 57.2456 0
299 1 3.8883 58.368 0
300 1 3.8883 59.4905 0
301 1 3.8883 60.613 0
302 1 3.8883 61.7354 0
303 1 3.8883 62.8579 0
304 1 3.8883 63.9803 0
305 1 3.8883 65.1028 0
306 1 3.8883 66.2253 0
307 1 3.8883 67.3477 0
308 1 3.8883 68.4702 0
309 1 4.8604 0.5612 0
310 1 4.8604 1.6837 0
311 1 4.8604 2.8062 0
312 1 4.8604 3.9286 0
313 1 4.8604 5.0511 0
314 1 4.8604 6.1735 0
315 1 4.8604 7.296 0
316 1 4.8604 8.4185 0
317 1 4.8604 9.5409 0
318 1 4.8604 10.6634 0
319 1 4.8604 11.7859 0
320 1 4.8604 12.9083 0
321 1 4.8604 14.0308 0
322 1 4.8604 15.1532 0
323 1 4.8604 16.2757 0
324 1 4.8604 17.3982 0
325 1 4.8604 18.5206 0
326 1 4.8604 19.6431 0
327 1 4.8604 20.7655 0
328 1 4.8604 21.888 0
329 1 4.8604 23.0105 0
330 1 4.8604 24.1329 0
331 1 4.8604 25.2554 0
332 1 4.8604 26.3779 0
333 1 4.8604 27.5003 0
334 1 4.8604 28.6228 0
335 1 4.8604 29.7452 0
336 1 4.8604 30.8677 0
337 1 4.8604 31.9902 0
338 1 4.8604 33.1126 0
339 1 4.8604 34.2351 0
340 1 4.8604 35.3576 0
341 1 4.8604 36.48 0
342 1 4.8604 37.6025 0
343 1 4.8604 38.7249 0
344 1 4.8604 39.8474 0
345 1 4.8604 40.9699 0
346 1 4.8604 42.0923 0
347 1 4.8604 43.2148 0
348 1 4.8604 44.3373 0
349 1 4.8604 45.4597 0
350 1 4.8604 46.5822 0
351 1 4.8604 47.7046 0
352 1 4.8604 48.8271 0
353 1 4.8604 49.9496 0
354 1 4.8604 51.072 0
355 1 4.8604 52.1945 0
356 1 4.8604 53.3169 0
357 1 4.8604 54.4394 0
358 1 4.8604 55.5619 0
359 1 4.8604 56.6843 0
360 1 4.8604 57.8068 0
361 1 4.8604 58.9293 0
362 1 4.8604 60.0517 0
363 1 4.8604 61.1742 0
364 1 4.8604 62.2966 0
365 1 4.8604 63.4191 0
366 1 4.8604 64.5416 0
367 1 4.8604 65.664 0
368 1 4.8604 66.7865 0
369 1 4.8604 67.909 0
370 1 5.8325 0 0
371 1 5.8325 1.1225 0
372 1 5.8325 2.2449 0
373 1 5.8325 3.3674 0
374 1 5.8325 4.4898 0
375 1 5.8325 5.6123 0
376 1 5.8325 6.7348 0
377 1 5.8325 7.8572 0
378 1 5.8325 8.9797 0
379 1 5.8325 10.1022 0
380 1 5.8325 11.2246 0
381 1 5.8325 12.3471 0
382 1 5.8325 13.4695 0
383 1 5.8325 14.592 0
384 1 5.8325 15.7145 0
385 1 5.8325 16.8369 0
386 1 5.8325 17.9594 0
387 1 5.8325 19.0819 0
388 1 5.8325 20.2043 0
389 1 5.8325 21.3268 0
390 1 5.8325 22.4492 0
391 1 5.8325 23.5717 0
392 1 5.8325 24.6942 0
393 1 5.8325 25.8166 0
394 1 5.8325 26.9391 0
395 1 5.8325 28.0616 0
396 1 5.8325 29.184 0
397 1 5.8325 30.3065 0
398 1 5.8325 31.4289 0
399 1 5.8325 32.5514 0
400 1 5.8325 33.6739 0
401 1 5.8325 34.7963 0
402 1 5.8325 35.9188 0
403 1 5.8325 37.0412 0
404 1 5.8325 38.1637 0
405 1 5.8325 39.2862 0
406 1 5.8325 40.4086 0
407 1 5.8325 41.5311 0
408 1 5.8325 42.6536 0
409 1 5.8325 43.776 0
410 1 5.8325 44.8985 0
411 1 5.8325 46.0209 0
412 1 5.8325 47.1434 0
413 1 5.8325 48.2659 0
414 1 5.8325 49.3883 0
415 1 5.8325 50.5108 0
416 1 5.8325 51.6333 0
417 1 5.8325 52.7557 0
418 1 5.8325 53.8782 0
419 1 5.8325 55.0006 0
420 1 5.8325 56.1231 0
421 1 5.8325 57.2456 0
422 1 5.8325 58.368 0
423 1 5.8325 59.4905 0
424 1 5.8325 60.613 0
425 1 5.8325 61.7354 0
426 1 5.8325 62.8579 0
427 1 5.8325 63.9803 0
428 1 5.8325 65.1028 0
429 1 5.8325 66.2253 0
430 1 5.8325 67.3477 0
431 1 5.8325 68.4702 0
432 1 6.8046 0.5612 0
433 1 6.8046 1.6837 0
434 1 6.8046 2.8062 0
435 1 6.8046 3.9286 0
436 1 6.8046 5.0511 0
437 1 6.8046 6.1735 0
438 1 6.8046 7.296 0
439 1 6.8046 8.4185 0
440 1 6.8046 9.5409 0
441 1 6.8046 10.6634 0
442 1 6.8046 11.7859 0
443 1 6.8046 12.9083 0
444 1 6.8046 14.0308 0
445 1 6.8046 15.1532 0
446 1 6.8046 16.2757 0
447 1 6.8046 17.3982 0
448 1 6.8046 18.5206 0
449 1 6.8046 19.6431 0
450 1 6.8046 20.7655 0
451 1 6.8046 21.888 0
452 1 6.8046 23.0105 0
453 1 6.8046 24.1329 0
454 1 6.8046 25.2554 0
455 1 6.8046 26.3779 0
456 1 6.8046 27.5003 0
457 1 6.8046 28.6228 0
458 1 6.8046 29.7452 0
459 1 6.8046 30.8677 0
460 1 6.8046 31.9902 0
461 1 6.8046 33.1126 0
462 1 6.8046 34.2351 0
463 1 6.8046 35.3576 0
464 1 6.8046 36.48 0
465 1 6.8046 37.6025 0
466 1 6.8046 38.7249 0
467 1 6.8046 39.8474 0
468 1 6.8046 40.9699 0
469 1 6.8046 42.0923 0
470 1 6.8046 43.2148 0
471 1 6.8046 44.3373 0
472 1 6.8046 45.4597 0
473 1 6.8046 46.5822 0
474 1 6.8046 47.7046 0
475 1 6.8046 48.8271 0
476 1 6.8046 49.9496 0
477 1 6.8046 51.072 0
478 1 6.8046 52.1945 0
479 1 6.8046 53.3169 0
480 1 6.8046 54.4394 0
481 1 6.8046 55.5619 0
482 1 6.8046 56.6843 0
483 1 6.8046 57.8068 0
484 1 6.8046 58.9293 0
485 1 6.8046 60.0517 0
486 1 6.8046 61.1742 0
487 1 6.8046 62.2966 0
488 1 6.8046 63.4191 0
489 1 6.8046 64.5416 0
490 1 6.8046 65.664 0
491 1 6.8046 66.7865 0
492 1 6.8046 67.909 0
493 1 7.7767 0 0
494 1 7.7767 1.1225 0
495 1 7.7767 2.2449 0
496 1 7.7767 3.3674 0
497 1 7.7767 4.4898 0
498 1 7.7767 5.6123 0
499 1 7.7767 6.7348 0
500 1 7.7767 7.8572 0
501 1 7.7767 8.9797 0
502 1 7.7767 10.1022 0
503 1 7.7767 11.2246 0
504 1 7.7767 12.3471 0
505 1 7.7767 13.4695 0
506 1 7.7767 14.592 0
507 1 7.7767 15.7145 0
508 1 7.7767 16.8369 0
509 1 7.7767 17.9594 0
510 1 7.7767 19.0819 0
511 1 7.7767 20.2043 0
512 1 7.7767 21.3268 0
513 1 7.7767 22.4492 0
514 1 7.7767 23.5717 0
515 1 7.7767 24.6942 0
516 1 7.7767 25.8166 0
517 1 7.7767 26.9391 0
518 1 7.7767 28.0616 0
519 1 7.7767 29.184 0
520 1 7.7767 30.3065 0
521 1 7.7767 31.4289 0
522 1 7.7767 32.5514 0
523 1 7.7767 33.6739 0
524 1 7.7767 34.7963 0
525 1 7.7767 35.9188 0
526 1 7.7767 37.0412 0
527 1 7.7767 38.1637 0
528 1 7.7767 39.2862 0
529 1 7.7767 40.4086 0
530 1 7.7767 41.5311 0
531 1 7.7767 42.6536 0
532 1 7.7767 43.776 0
533 1 7.7767 44.8985 0
534 1 7.7767 46.0209 0
535 1 7.7767 47.1434 0
536 1 7.7767 48.2659 0
537 1 7.7767 49.3883 0
538 1 7.7767 50.5108 0
539 1 7.7767 51.6333 0
540 1 7.7767 52.7557 0
541 1 7.7767 53.8782 0
542 1 7.7767 55.0006 0
543 1 7.7767 56.1231 0
544 1 7.7767 57.2456 0
545 1 7.7767 58.368 0
546 1 7.7767 59.4905 0
547 1 7.7767 60.613 0
548 1 7.7767 61.7354 0
549 1 7.7767 62.8579 0
550 1 7.7767 63.9803 0
551 1 7.7767 65.1028 0
552 1 7.7767 66.2253 0
553 1 7.7767 67.3477 0
554 1 7.7767 68.4702 0
555 1 8.7487 0.5612 0
556 1 8.7487 1.6837 0
557 1 8.7487 2.8062 0
558 1 8.7487 3.9286 0
559 1 8.7487 5.0511 0
560 1 8.7487 6.1735 0
561 1 8.7487 7.296 0
562 1 8.7487 8.4185 0
563 1 8.7487 9.5409 0
564 1 8.7487 10.6634 0
565 1 8.7487 11.7859 0
566 1 8.7487 12.9083 0
567 1 8.7487 14.0308 0
568 1 8.7487 15.1532 0
569 1 8.7487 16.2757 0
570 1 8.7487 17.3982 0
571 1 8.7487 18.5206 0
572 1 8.7487 19.6431 0
573 1 8.7487 20.7655 0
574 1 8.7487 21.888 0
575 1 8.7487 23.0105 0
576 1 8.7487 24.1329 0
577 1 8.7487 25.2554 0
578 1 8.7487 26.3779 0
579 1 8.7487 27.5003 0
580 1 8.7487 28.6228 0
581 1 8.7487 29.7452 0
582 1 8.7487 30.8677 0
583 1 8.7487 31.9902 0
584 1 8.7487 33.1126 0
585 1 8.7487 34.2351 0
586 1 8.7487 35.3576 0
587 1 8.7487 36.48 0
588 1 8.7487 37.6025 0
589 1 8.7487 38.7249 0
590 1 8.7487 39.8474 0
591 1 8.7487 40.9699 0
592 1 8.7487 42.0923 0
593 1 8.7487 43.2148 0
594 1 8.7487 44.3373 0
595 1 8.7487 45.4597 0
596 1 8.7487 46.5822 0
597 1 8.7487 47.7046 0
598 1 8.7487 48.8271 0
599 1 8.7487 49.9496 0
600 1 8.7487 51.072 0
601 1 8.7487 52.1945 0
602 1 8.7487 53.3169 0
603 1 8.7487 54.4394 0
604 1 8.7487 55.5619 0
605 1 8.7487 56.6843 0
606 1 8.7487 57.8068 0
607 1 8.7487 58.9293 0
608 1 8.7487 60.0517 0
609 1 8.7487 61.1742 0
610 1 8.7487 62.2966 0
611 1 8.7487 63.4191 0
612 1 8.7487 64.5416 0
613 1 8.7487 65.664 0
614 1 8.7487 66.7865 0
615 1 8.7487 67.909 0
616 1 9.7208 0 0
617 1 9.7208 1.1225 0
618 1 9.7208 2.2449 0
619 1 9.7208 3.3674 0
620 1 9.7208 4.4898 0
621 1 9.7208 5.6123 0
622 1 9.7208 6.7348 0
623 1 9.7208 7.8572 0
624 1 9.7208 8.9797 0
625 1 9.7208 10.1022 0
626 1 9.7208 11.2246 0
627 1 9.7208 12.3471 0
628 1 9.7208 13.4695 0
629 1 9.7208 14.592 0
630 1 9.7208 15.7145 0
631 1 9.7208 16.8369 0
632 1 9.7208 17.9594 0
633 1 9.7208 19.0819 0
634 1 9.7208 20.2043 0
635 1 9.7208 21.3268 0
636 1 9.7208 22.4492 0
637 1 9.7208 23.5717 0
638 1 9.7208 24.6942 0
639 1 9.7208 25.8166 0
640 1 9.7208 26.9391 0
641 1 9.7208 28.0616 0
642 1 9.7208 29.184 0
643 1 9.7208 30.3065 0
644 1 9.7208 31.4289 0
645 1 9.7208 32.5514 0
646 1 9.7208 33.6739 0
647 1 9.7208 34.7963 0
648 1 9.7208 35.9188 0
649 1 9.7208 37.0412 0
650 1 9.7208 38.1637 0
651 1 9.7208 39.2862 0
652 1 9.7208 40.4086 0
653 1 9.7208 41.5311 0
654 1 9.7208 42.6536 0
655 1 9.7208 43.776 0
656 1 9.7208 44.8985 0
657 1 9.7208 46.0209 0
658 1 9.7208 47.1434 0
659 1 9.7208 48.2659 0
660 1 9.7208 49.3883 0
661 1 9.7208 50.5108 0
662 1 9.7208 51.6333 0
663 1 9.7208 52.7557 0
664 1 9.7208 53.8782 0
665 1 9.7208 55.0006 0
666 1 9.7208 56.1231 0
667 1 9.7208 57.2456 0
668 1 9.7208 58.368 0
669 1 9.7208 59.4905 0
670 1 9.7208 60.613 0
671 1 9.7208 61.7354 0
672 1 9.7208 62.8579 0
673 1 9.7208 63.9803 0
674 1 9.7208 65.1028 0
675 1 9.7208 66.2253 0
676 1 9.7208 67.3477 0
677 1 9.7208 68.4702 0
678 1 10.6929 0.5612 0
679 1 10.6929 1.6837 0
680 1 10.6929 2.8062 0
681 1 10.6929 3.9286 0
682 1 10.6929 5.0511 0
683 1 10.6929 6.1735 0
684 1 10.6929 7.296 0
685 1 10.6929 8.4185 0
686 1 10.6929 9.5409 0
687 1 10.6929 10.6634 0
688 1 10.6929 11.7859 0
689 1 10.6929 12.9083 0
690 1 10.6929 14.0308 0
691 1 10.6929 15.1532 0
692 1 10.6929 16.2757 0
693 1 10.6929 17.3982 0
694 1 10.6929 18.5206 0
695 1 10.6929 19.6431 0
696 1 10.6929 20.7655 0
697 1 10.6929 21.888 0
698 1 10.6929 23.0105 0
699 1 10.6929 24.1329 0
700 1 10.6929 25.2554 0
701 1 10.6929 26.3779 0
702 1 10.6929 27.5003 0
703 1 10.6929 28.6228 0
704 1 10.6929 29.7452 0
705 1 10.6929 30.8677 0
706 1 10.6929 31.9902 0
707 1 10.6929 33.1126 0
708 1 10.6929 34.2351 0
709 1 10.6929 35.3576 0
710 1 10.6929 36.48 0
711 1 10.6929 37.6025 0
712 1 10.6929 38.7249 0
713 1 10.6929 39.8474 0
714 1 10.6929 40.9699 0
715 1 10.6929 42.0923 0
716 1 10.6929 43.2148 0
717 1 10.6929 44.3373 0
718 1 10.6929 45.4597 0
719 1 10.6929 46.5822 0
720 1 10.6929 47.7046 0
721 1 10.6929 48.8271 0
722 1 10.6929 49.9496 0
723 1 10.6929 51.072 0
724 1 10.6929 52.1945 0
725 1 10.6929 53.3169 0
726 1 10.6929 54.4394 0
727 1 10.6929 55.5619 0
728 1 10.6929 56.6843 0
729 1 10.6929 57.8068 0
730 1 10.6929 58.9293 0
731 1 10.6929 60.0517 0
732 1 10.6929 61.1742 0
733 1 10.6929 62.2966 0
734 1 10.6929 63.4191 0
735 1 10.6929 64.5416 0
736 1 10.6929 65.664 0
737 1 10.6929 66.7865 0
738 1 10.6929 67.909 0
739 1 11.665 0 0
740 1 11.665 1.1225 0
741 1 11.665 2.2449 0
742 1 11.665 3.3674 0
743 1 11.665 4.4898 0
744 1 11.665 5.6123 0
745 1 11.665 6.7348 0
746 1 11.665 7.8572 0
747 1 11.665 8.9797 0
748 1 11.665 10.1022 0
749 1 11.665 11.2246 0
750 1 11.665 12.3471 0
751 1 11.665 13.4695 0
752 1 11.665 14.592 0
753 1 11.665 15.7145 0
754 1 11.665 16.8369 0
755 1 11.665 17.9594 0
756 1 11.665 19.0819 0
757 1 11.665 20.2043 0
758 1 11.665 21.3268 0
759 1 11.665 22.4492 0
760 1 11.665 23.5717 0
761 1 11.665 24.6942 0
762 1 11.665 25.8166 0
763 1 11.665 26.9391 0
764 1 11.665 28.0616 0
765 1 11.665 29.184 0
766 1 11.665 30.3065 0
767 1 11.665 31.4289 0
768 1 11.665 32.5514 0
769 1 11.665 33.6739 0
770 1 11.665 34.7963 0
771 1 11.665 35.9188 0
772 1 11.665 37.0412 0
773 1 11.665 38.1637 0
774 1 11.665 39.2862 0
775 1 11.665 40.4086 0
776 1 11.665 41.5311 0
777 1 11.665 42.6536 0
778 1 11.665 43.776 0
779 1 11.665 44.8985 0
780 1 11.665 46.0209 0
781 1 11.665 47.1434 0
782 1 11.665 48.2659 0
783 1 11.665 49.3883 0
784 1 11.665 50.5108 0
785 1 11.665 51.6333 0
786 1 11.665 52.7557 0
787 1 11.665 53.8782 0
788 1 11.665 55.0006 0
789 1 11.665 56.1231 0
790 1 11.665 57.2456 0
791 1 11.665 58.368 0
792 1 11.665 59.4905 0
793 1 11.665 60.613 0
794 1 11.665 61.7354 0
795 1 11.665 62.8579 0
796 1 11.665 63.9803 0
797 1 11.665 65.1028 0
798 1 11.665 66.2253 0
799 1 11.665 67.3477 0
800 1 11.665 68.4702 0
801 1 12.637 0.5612 0
802 1 12.637 1.6837 0
803 1 12.637 2.8062 0
804 1 12.637 3.9286 0
805 1 12.637 5.0511 0
806 1 12.637 6.1735 0
807 1 12.637 7.296 0
808 1 12.637 8.4185 0
809 1 12.637 9.5409 0
810 1 12.637 10.6634 0
811 1 12.637 11.7859 0
812 1 12.637 12.9083 0
813 1 12.637 14.0308 0
814 1 12.637 15.1532 0
815 1 12.637 16.2757 0
816 1 12.637 17.3982 0
817 1 12.637 18.5206 0
818 1 12.637 19.6431 0
819 1 12.637 20.7655 0
820 1 12.637 21.888 0
821 1 12.637 23.0105 0
822 1 12.637 24.1329 0
823 1 12.637 25.2554 0
824 1 12.637 26.3779 0
825 1 12.637 27.5003 0
826 1 12.637 28.6228 0
827 1 12.637 29.7452 0
828 1 12.637 30.8677 0
829 1 12.637 31.9902 0
830 1 12.637 33.1126 0
831 1 12.637 34.2351 0
832 1 12.637 35.3576 0
833 1 12.637 36.48 0
834 1 12.637 37.6025 0
835 1 12.637 38.7249 0
836 1 12.637 39.8474 0
837 1 12.637 40.9699 0
838 1 12.637 42.0923 0
839 1 12.637 43.2148 0
840 1 12.637 44.3373 0
841 1 12.637 45.4597 0
842 1 12.637 46.5822 0
843 1 12.637 47.7046 0
844 1 12.637 48.8271 0
845 1 12.637 49.9496 0
846 1 12.637 51.072 0
847 1 12.637 52.1945 0
848 1 12.637 53.3169 0
849 1 12.637 54.4394 0
850 1 12.637 55.5619 0
851 1 12.637 56.6843 0
852 1 12.637 57.8068 0
853 1 12.637 58.9293 0
854 1 12.637 60.0517 0
855 1 12.637 61.1742 0
856 1 12.637 62.2966 0
857 1 12.637 63.4191 0
858 1 12.637 64.5416 0
859 1 12.637 65.664 0
860 1 12.637 66.7865 0
861 1 12.637 67.909 0
862 1 13.6091 0 0
863 1 13.6091 1.1225 0
864 1 13.6091 2.2449 0
865 1 13.6091 3.3674 0
866 1 13.6091 4.4898 0
867 1 13.6091 5.6123 0
868 1 13.6091 6.7348 0
869 1 13.6091 7.8572 0
870 1 13.6091 8.9797 0
871 1 13.6091 10.1022 0
872 1 13.6091 11.2246 0
873 1 13.6091 12.3471 0
874 1 13.6091 13.4695 0
875 1 13.6091 14.592 0
876 1 13.6091 15.7145 0
877 1 13.6091 16.8369 0
878 1 13.6091 17.9594 0
879 1 13.6091 19.0819 0
880 1 13.6091 20.2043 0
881 1 13.6091 21.3268 0
882 1 13.6091 22.4492 0
883 1 13.6091 23.5717 0
884 1 13.6091 24.6942 0
885 1 13.6091 25.8166 0
886 1 13.6091 26.9391 0
887 1 13.6091 28.0616 0
888 1 13.6091 29.184 0
889 1 13.6091 30.3065 0
890 1 13.6091 31.4289 0
891 1 13.6091 32.5514 0
892 1 13.6091 33.6739 0
893 1 13.6091 34.7963 0
894 1 13.6091 35.9188 0
895 1 13.6091 37.0412 0
896 1 13.6091 38.1637 0
897 1 13.6091 39.2862 0
898 1 13.6091 40.4086 0
899 1 13.6091 41.5311 0
900 1 13.6091 42.6536 0
901 1 13.6091 43.776 0
902 1 13.6091 44.8985 0
903 1 13.6091 46.0209 0
904 1 13.6091 47.1434 0
905 1 13.6091 48.2659 0
906 1 13.6091 49.3883 0
907 1 13.6091 50.5108 0
908 1 13.6091 51.6333 0
909 1 13.6091 52.7557 0
910 1 13.6091 53.8782 0
911 1 13.6091 55.0006 0
912 1 13.6091 56.1231 0
913 1 13.6091 57.2456 0
914 1 13.6091 58.368 0
915 1 13.6091 59.4905 0
916 1 13.6091 60.613 0
917 1 13.6091 61.7354 0
918 1 13.6091 62.8579 0
919 1 13.6091 63.9803 0
920 1 13.6091 65.1028 0
921 1 13.6091 66.2253 0
922 1 13.6091 67.3477 0
923 1 13.6091 68.4702 0
924 1 14.5812 0.5612 0
925 1 14.5812 1.6837 0
926 1 14.5812 2.8062 0
927 1 14.5812 3.9286 0
928 1 14.5812 5.0511 0
929 1 14.5812 6.1735 0
930 1 14.5812 7.296 0
931 1 14.5812 8.4185 0
932 1 14.5812 9.5409 0
933 1 14.5812 10.6634 0
934 1 14.5812 11.7859 0
935 1 14.5812 12.9083 0
936 1 14.5812 14.0308 0
937 1 14.5812 15.1532 0
938 1 14.5812 16.2757 0
939 1 14.5812 17.3982 0
940 1 14.5812 18.5206 0
941 1 14.5812 19.6431 0
942 1 14.5812 20.7655 0
943 1 14.5812 21.888 0
944 1 14.5812 23.0105 0
945 1 14.5812 24.1329 0
946 1 14.5812 25.2554 0
947 1 14.5812 26.3779 0
948 1 14.5812 27.5003 0
949 1 14.5812 28.6228 0
950 1 14.5812 29.7452 0
951 1 14.5812 30.8677 0
952 1 14.5812 31.9902 0
953 1 14.5812 33.1126 0
954 1 14.5812 34.2351 0
955 1 14.5812 35.3576 0
956 1 14.5812 36.48 0
957 1 14.5812 37.6025 0
958 1 14.5812 38.7249 0
959 1 14.5812 39.8474 0
960 1 14.5812 40.9699 0
961 1 14.5812 42.0923 0
962 1 14.5812 43.2148 0
963 1 14.5812 44.3373 0
964 1 14.5812 45.4597 0
965 1 14.5812 46.5822 0
966 1 14.5812 47.7046 0
967 1 14.5812 48.8271 0
968 1 14.5812 49.9496 0
969 1 14.5812 51.072 0
970 1 14.5812 52.1945 0
971 1 14.5812 53.3169 0
972 1 14.5812 54.4394 0
973 1 14.5812 55.5619 0
974 1 14.5812 56.6843 0
975 1 14.5812 57.8068 0
976 1 14.5812 58.9293 0
977 1 14.5812 60.0517 0
978 1 14.5812 61.1742 0
979 1 14.5812 62.2966 0
980 1 14.5812 63.4191 0
981 1 14.5812 64.5416 0
982 1 14.5812 65.664 0
983 1 14.5812 66.7865 0
984 1 14.5812 67.909 0
985 1 15.5533 0 0
986 1 15.5533 1.1225 0
987 1 15.5533 2.2449 0
988 1 15.5533 3.3674 0
989 1 15.5533 4.4898 0
990 1 15.5533 5.6123 0
991 1 15.5533 6.7348 0
992 1 15.5533 7.8572 0
993 1 15.5533 8.9797 0
994 1 15.5533 10.1022 0
995 1 15.5533 11.2246 0
996 1 15.5533 12.3471 0
997 1 15.5533 13.4695 0
998 1 15.5533 14.592 0
999 1 15.5533 15.7145 0
1000 1 15.5533 16.8369 0
1001 1 15.5533 17.9594 0
1002 1 15.5533 19.0819 0
1003 1 15.5533 20.2043 0
1004 1 15.5533 21.3268 0
1005 1 15.5533 22.4492 0
1006 1 15.5533 23.5717 0
1007 1 15.5533 24.6942 0
1008 1 15.5533 25.8166 0
1009 1 15.5533 26.9391 0
1010 1 15.5533 28.0616 0
1011 1 15.5533 29.184 0
1012 1 15.5533 30.3065 0
1013 1 15.5533 31.4289 0
1014 1 15.5533 32.5514 0
1015 1 15.5533 33.6739 0
1016 1 15.5533 34.7963 0
1017 1 15.5533 35.9188 0
1018 1 15.5533 37.0412 0
1019 1 15.5533 38.1637 0
1020 1 15.5533 39.2862 0
1021 1 15.5533 40.4086 0
1022 1 15.5533 41.5311 0
1023 1 15.5533 42.6536 0
1024 1 15.5533 43.776 0
1025 1 15.5533 44.8985 0
1026 1 15.5533 46.0209 0
1027 1 15.5533 47.1434 0
1028 1 15.5533 48.2659 0
1029 1 15.5533 49.3883 0
1030 1 15.5533 50.5108 0
1031 1 15.5533 51.6333 0
1032 1 15.5533 52.7557 0
1033 1 15.5533 53.8782 0
1034 1 15.5533 55.0006 0
1035 1 15.5533 56.1231 0
1036 1 15.5533 57.2456 0
1037 1 15.5533 58.368 0
1038 1 15.5533 59.4905 0
1039 1 15.5533 60.613 0
1040 1 15.5533 61.7354 0
1041 1 15.5533 62.8579 0
1042 1 15.5533 63.9803 0
1043 1 15.5533 65.1028 0
1044 1 15.5533 66.2253 0
1045 1 15.5533 67.3477 0
1046 1 15.5533 68.4702 0
1047 1 16.5254 0.5612 0
1048 1 16.5254 1.6837 0
1049 1 16.5254 2.8062 0
1050 1 16.5254 3.9286 0
1051 1 16.5254 5.0511 0
1052 1 16.5254 6.1735 0
1053 1 16.5254 7.296 0
1054 1 16.5254 8.4185 0
1055 1 16.5254 9.5409 0
1056 1 16.5254 10.6634 0
1057 1 16.5254 11.7859 0
1058 1 16.5254 12.9083 0
1059 1 16.5254 14.0308 0
1060 1 16.5254 15.1532 0
1061 1 16.5254 16.2757 0
1062 1 16.5254 17.3982 0
1063 1 16.5254 18.5206 0
1064 1 16.5254 19.6431 0
1065 1 16.5254 20.7655 0
1066 1 16.5254 21.888 0
1067 1 16.5254 23.0105 0
1068 1 16.5254 24.1329 0
1069 1 16.5254 25.2554 0
1070 1 16.5254 26.3779 0
1071 1 16.5254 27.5003 0
1072 1 16.5254 28.6228 0
1073 1 16.5254 29.7452 0
1074 1 16.5254 30.8677 0
1075 1 16.5254 31.9902 0
1076 1 16.5254 33.1126 0
1077 1 16.5254 34.2351 0
1078 1 16.5254 35.3576 0
1079 1 16.5254 36.48 0
1080 1 16.5254 37.6025 0
1081 1 16.5254 38.7249 0
1082 1 16.5254 39.8474 0
1083 1 16.5254 40.9699 0
1084 1 16.5254 42.0923 0
1085 1 16.5254 43.2148 0
1086 1 16.5254 44.3373 0
1087 1 16.5254 45.4597 0
1088 1 16.5254 46.5822 0
1089 1 16.5254 47.7046 0
1090 1 16.5254 48.8271 0
1091 1 16.5254 49.9496 0
1092 1 16.5254 51.072 0
1093 1 16.5254 52.1945 0
1094 1 16.5254 53.3169 0
1095 1 16.5254 54.4394 0
1096 1 16.5254 55.5619 0
1097 1 16.5254 56.6843 0
1098 1 16.5254 57.8068 0
1099 1 16.5254 58.9293 0
1100 1 16.5254 60.0517 0
1101 1 16.5254 61.1742 0
1102 1 16.5254 62.2966 0
1103 1 16.5254 63.4191 0
1104 1 16.5254 64.5416 0
1105 1 16.5254 65.664 0
1106 1 16.5254 66.7865 0
1107 1 16.5254 67.909 0
1108 1 17.4975 0 0
1109 1 17.4975 1.1225 0
1110 1 17.4975 2.2449 0
1111 1 17.4975 3.3674 0
1112 1 17.4975 4.4898 0
1113 1 17.4975 5.6123 0
1114 1 17.4975 6.7348 0
1115 1 17.4975 7.8572 0
1116 1 17.4975 8.9797 0
1117 1 17.4975 10.1022 0
1118 1 17.4975 11.2246 0
1119 1 17.4975 12.3471 0
1120 1 17.4975 13.4695 0
1121 1 17.4975 14.592 0
1122 1 17.4975 15.7145 0
1123 1 17.4975 16.8369 0
1124 1 17.4975 17.9594 0
1125 1 17.4975 19.0819 0
1126 1 17.4975 20.2043 0
1127 1 17.4975 21.3268 0
1128 1 17.4975 22.4492 0
1129 1 17.4975 23.5717 0
1130 1 17.4975 24.6942 0
1131 1 17.4975 25.8166 0
1132 1 17.4975 26.9391 0
1133 1 17.4975 28.0616 0
1134 1 17.4975 29.184 0
1135 1 17.4975 30.3065 0
1136 1 17.4975 31.4289 0
1137 1 17.4975 32.5514 0
1138 1 17.4975 33.6739 0
1139 1 17.4975 34.7963 0
1140 1 17.4975 35.9188 0
1141 1 17.4975 37.0412 0
1142 1 17.4975 38.1637 0
1143 1 17.4975 39.2862 0
1144 1 17.4975 40.4086 0
1145 1 17.4975 41.5311 0
1146 1 17.4975 42.6536 0
1147 1 17.4975 43.776 0
1148 1 17.4975 44.8985 0
1149 1 17.4975 46.0209 0
1150 1 17.4975 47.1434 0
1151 1 17.4975 48.2659 0
1152 1 17.4975 49.3883 0
1153 1 17.4975 50.5108 0
1154 1 17.4975 51.6333 0
1155 1 17.4975 52.7557 0
1156 1 17.4975 53.8782 0
1157 1 17.4975 55.0006 0
1158 1 17.4975 56.1231 0
1159 1 17.4975 57.2456 0
1160 1 17.4975 58.368 0
1161 1 17.4975 59.4905 0
1162 1 17.4975 60.613 0
1163 1 17.4975 61.7354 0
1164 1 17.4975 62.8579 0
1165 1 17.4975 63.9803 0
1166 1 17.4975 65.1028 0
1167 1 17.4975 66.2253 0
1168 1 17.4975 67.3477 0
1169 1 17.4975 68.4702 0
1170 1 18.4695 0.5612 0
1171 1 18.4695 1.6837 0
1172 1 18.4695 2.8062 0
1173 1 18.4695 3.9286 0
1174 1 18.4695 5.0511 0
1175 1 18.4695 6.1735 0
1176 1 18.4695 7.296 0
1177 1 18.4695 8.4185 0
1178 1 18.4695 9.5409 0
1179 1 18.4695 10.6634 0
1180 1 18.4695 11.7859 0
1181 1 18.4695 12.9083 0
1182 1 18.4695 14.0308 0
1183 1 18.4695 15.1532 0
1184 1 18.4695 16.2757 0
1185 1 18.4695 17.3982 0
1186 1 18.4695 18.5206 0
1187 1 18.4695 19.6431 0
1188 1 18.4695 20.7655 0
1189 1 18.4695 21.888 0
1190 1 18.4695 23.0105 0
1191 1 18.4695 24.1329 0
1192 1 18.4695 25.2554 0
1193 1 18.4695 26.3779 0
1194 1 18.4695 27.5003 0
1195 1 18.4695 28.6228 0
1196 1 18.4695 29.7452 0
1197 1 18.4695 30.8677 0
1198 1 18.4695 31.9902 0
1199 1 18.4695 33.1126 0
1200 1 18.4695 34.2351 0
1201 1 18.4695 35.3576 0
1202 1 18.4695 36.48 0
1203 1 18.4695 37.6025 0
1204 1 18.4695 38.7249 0
1205 1 18.4695 39.8474 0
1206 1 18.4695 40.9699 0
1207 1 18.4695 42.0923 0
1208 1 18.4695 43.2148 0
1209 1 18.4695 44.3373 0
1210 1 18.4695 45.4597 0
1211 1 18.4695 46.5822 0
1212 1 18.4695 47.7046 0
1213 1 18.4695 48.8271 0
1214 1 18.4695 49.9496 0
1215 1 18.4695 51.072 0
1216 1 18.4695 52.1945 0
1217 1 18.4695 53.3169 0
1218 1 18.4695 54.4394 0
1219 1 18.4695 55.5619 0
1220 1 18.4695 56.6843 0
1221 1 18.4695 57.8068 0
1222 1 18.4695 58.9293 0
1223 1 18.4695 60.0517 0
1224 1 18.4695 61.1742 0
1225 1 18.4695 62.2966 0
1226 1 18.4695 63.4191 0
1227 1 18.4695 64.5416 0
1228 1 18.4695 65.664 0
1229 1 18.4695 66.7865 0
1230 1 18.4695 67.909 0
1231 1 19.4416 0 0
1232 1 19.4416 1.1225 0
1233 1 19.4416 2.2449 0
1234 1 19.4416 3.3674 0
1235 1 19.4416 4.4898 0
1236 1 19.4416 5.6123 0
1237 1 19.4416 6.7348 0
1238 1 19.4416 7.8572 0
1239 1 19.4416 8.9797 0
1240 1 19.4416 10.1022 0
1241 1 19.4416 11.2246 0
1242 1 19.4416 12.3471 0
1243 1 19.4416 13.4695 0
1244 1 19.4416 14.592 0
1245 1 19.4416 15.7145 0
1246 1 19.4416 16.8369 0
1247 1 19.4416 17.9594 0
1248 1 19.4416 19.0819 0
1249 1 19.4416 20.2043 0
1250 1 19.4416 21.3268 0
1251 1 19.4416 22.4492 0
1252 1 19.4416 23.5717 0
1253 1 19.4416 24.6942 0
1254 1 19.4416 25.8166 0
1255 1 19.4416 26.9391 0
1256 1 19.4416 28.0616 0
1257 1 19.4416 29.184 0
1258 1 19.4416 30.3065 0
1259 1 19.4416 31.4289 0
1260 1 19.4416 32.5514 0
1261 1 19.4416 33.6739 0
1262 1 19.4416 34.7963 0
1263 1 19.4416 35.9188 0
1264 1 19.4416 37.0412 0
1265 1 19.4416 38.1637 0
1266 1 19.4416 39.2862 0
1267 1 19.4416 40.4086 0
1268 1 19.4416 41.5311 0
1269 1 19.4416 42.6536 0
1270 1 19.4416 43.776 0
1271 1 19.4416 44.8985 0
1272 1 19.4416 46.0209 0
1273 1 19.4416 47.1434 0
1274 1 19.4416 48.2659 0
1275 1 19.4416 49.3883 0
1276 1 19.4416 50.5108 0
1277 1 19.4416 51.6333 0
1278 1 19.4416 52.7557 0
1279 1 19.4416 53.8782 0
1280 1 19.4416 55.0006 0
1281 1 19.4416 56.1231 0
1282 1 19.4416 57.2456 0
1283 1 19.4416 58.368 0
1284 1 19.4416 59.4905 0
1285 1 19.4416 60.613 0
1286 1 19.4416 61.7354 0
1287 1 19.4416 62.8579 0
1288 1 19.4416 63.9803 0
1289 1 19.4416 65.1028 0
1290 1 19.4416 66.2253 0
1291 1 19.4416 67.3477 0
1292 1 19.4416 68.4702 0
1293 1 20.4137 0.5612 0
1294 1 20.4137 1.6837 0
1295 1 20.4137 2.8062 0
1296 1 20.4137 3.9286 0
1297 1 20.4137 5.0511 0