ITEM: TIMESTEP
0
ITEM: NUMBER OF ATOMS
19
ITEM: BOX BOUNDS
0.00000000 20.20431687
-1.0 1.0
-1.0 1.0
ITEM: ATOMS
0 2 0.00000000 0.0 0.0
1 2 1.12246205 0.0 0.0
2 2 2.24492410 0.0 0.0
3 2 3.36738614 0.0 0.0
4 2 4.48984819 0.0 0.0
5 2 5.61231024 0.0 0.0
6 2 6.73477229 0.0 0.0
7 2 7.85723434 0.0 0.0
8 2 8.97969639 0.0 0.0
9 2 10.10215843 0.0 0.0
10 2 11.22462048 0.0 0.0
11 2 12.34708253 0.0 0.0
12 2 13.46954458 0.0 0.0
13 2 14.59200663 0.0 0.0
14 2 15.71446868 0.0 0.0
15 2 16.83693072 0.0 0.0
16 2 17.95939277 0.0 0.0
17 2 19.08185482 0.0 0.0
18 2 20.20431687 0.0 0.0
ITEM: TIMESTEP
1
ITEM: NUMBER OF ATOMS
19
ITEM: BOX BOUNDS
0.00000000 20.20431687
-1.0 1.0
-1.0 1.0
ITEM: ATOMS
0 2 0.00000000 0.0 0.0
1 2 1.12389038 0.0 0.0
2 2 2.24646908 0.0 0.0
3 2 3.36878960 0.0 0.0
4 2 4.49125217 0.0 0.0
5 2 5.61407067 0.0 0.0
6 2 6.73624847 0.0 0.0
7 2 7.85798840 0.0 0.0
8 2 8.97994509 0.0 0.0
9 2 10.10220399 0.0 0.0
10 2 11.22464190 0.0 0.0
11 2 12.34747535 0.0 0.0
12 2 13.47169773 0.0 0.0
13 2 14.59860419 0.0 0.0
14 2 15.72736176 0.0 0.0
15 2 16.85457553 0.0 0.0
16 2 17.98093189 0.0 0.0
17 2 19.10857921 0.0 0.0
18 2 20.23705508 0.0 0.0
