ITEM: TIMESTEP
0
ITEM: NUMBER OF ATOMS
10
ITEM: BOX BOUNDS ff ff pp
-10 100
-1 1
-1 1
ITEM: ATOMS id type x y z f_sf[1] 
1 1 0 0 0 0.018584 
2 1 2.866 0 0 0.018584 
3 1 5.732 0 0 5.61939e-016 
4 1 8.598 0 0 -1.08376e-015 
5 1 11.464 0 0 -2.43556e-017 
6 1 14.33 0 0 2.2065e-015 
7 1 17.196 0 0 -2.20786e-015 
8 1 20.062 0 0 4.03391e-017 
9 1 22.928 0 0 -0.018584 
10 1 25.794 0 0 -0.018584 
ITEM: TIMESTEP
1
ITEM: NUMBER OF ATOMS
10
ITEM: BOX BOUNDS ff ff pp
-10 100
-1 1
-1 1
ITEM: ATOMS id type x y z f_sf[1] 
1 1 0 0 0 0.0185858 
2 1 2.866 0 0 0.0185804 
3 1 5.732 0 0 1.78645e-006 
4 1 8.598 0 0 -3.48864e-008 
5 1 11.464 0 0 -2.43556e-017 
6 1 14.33 0 0 2.2065e-015 
7 1 17.196 0 0 3.48864e-008 
8 1 20.062 0 0 -1.75157e-006 
9 1 22.928 0 0 -0.0185822 
10 1 25.794 0 0 -0.018584 
ITEM: TIMESTEP
2
ITEM: NUMBER OF ATOMS
10
ITEM: BOX BOUNDS ff ff pp
-10 100
-1 1
-1 1
ITEM: ATOMS id type x y z f_sf[1] 
1 1 0 0 0 0.0185911 
2 1 2.86601 0 0 0.0185698 
3 1 5.732 0 0 7.14451e-006 
4 1 8.598 0 0 -1.39176e-007 
5 1 11.464 0 0 -1.35455e-011 
6 1 14.33 0 0 1.34166e-011 
7 1 17.196 0 0 1.3919e-007 
8 1 20.062 0 0 -7.00532e-006 
9 1 22.928 0 0 -0.018577 
10 1 25.794 0 0 -0.0185841 
ITEM: TIMESTEP
3
ITEM: NUMBER OF ATOMS
10
ITEM: BOX BOUNDS ff ff pp
-10 100
-1 1
-1 1
ITEM: ATOMS id type x y z f_sf[1] 
1 1 0 0 0 0.0186001 
2 1 2.86601 0 0 0.0185521 
3 1 5.732 0 0 1.60703e-005 
4 1 8.598 0 0 -3.11761e-007 
5 1 11.464 0 0 -8.11878e-011 
6 1 14.33 0 0 8.04098e-011 
7 1 17.196 0 0 3.11842e-007 
8 1 20.062 0 0 -1.57584e-005 
9 1 22.928 0 0 -0.0185682 
10 1 25.794 0 0 -0.0185843 
ITEM: TIMESTEP
4
ITEM: NUMBER OF ATOMS
10
ITEM: BOX BOUNDS ff ff pp
-10 100
-1 1
-1 1
ITEM: ATOMS id type x y z f_sf[1] 
1 1 0 0 0 0.0186125 
2 1 2.86602 0 0 0.0185274 
3 1 5.732 0 0 2.85573e-005 
4 1 8.598 0 0 -5.50796e-007 
5 1 11.464 0 0 -2.70228e-010 
6 1 14.33 0 0 2.67643e-010 
7 1 17.196 0 0 5.51064e-007 
8 1 20.062 0 0 -2.80062e-005 
9 1 22.928 0 0 -0.018556 
10 1 25.794 0 0 -0.0185845 
ITEM: TIMESTEP
5
ITEM: NUMBER OF ATOMS
10
ITEM: BOX BOUNDS ff ff pp
-10 100
-1 1
-1 1
ITEM: ATOMS id type x y z f_sf[1] 
1 1 0 0 0 0.0186286 
2 1 2.86604 0 0 0.0184956 
3 1 5.732 0 0 4.45964e-005 
4 1 8.598 0 0 -8.537e-007 
5 1 11.464 0 0 -6.74295e-010 
6 1 14.33 0 0 6.67884e-010 
7 1 17.196 0 0 8.54368e-007 
8 1 20.062 0 0 -4.37421e-005 
9 1 22.928 0 0 -0.0185402 
10 1 25.794 0 0 -0.0185848 
ITEM: TIMESTEP
6
ITEM: NUMBER OF ATOMS
10
ITEM: BOX BOUNDS ff ff pp
-10 100
-1 1
-1 1
ITEM: ATOMS id type x y z f_sf[1] 
1 1 0 0 0 0.0186482 
2 1 2.86605 0 0 0.0184568 
3 1 5.732 0 0 6.4176e-005 
4 1 8.598 0 0 -1.21716e-006 
5 1 11.464 0 0 -1.41275e-009 
6 1 14.33 0 0 1.39943e-009 
7 1 17.196 0 0 1.21856e-006 
8 1 20.062 0 0 -6.29575e-005 
9 1 22.9279 0 0 -0.018521 
10 1 25.7939 0 0 -0.0185852 
ITEM: TIMESTEP
7
ITEM: NUMBER OF ATOMS
10
ITEM: BOX BOUNDS ff ff pp
-10 100
-1 1
-1 1
ITEM: ATOMS id type x y z f_sf[1] 
1 1 0 0 0 0.0186714 
2 1 2.86607 0 0 0.0184109 
3 1 5.732 0 0 8.72819e-005 
4 1 8.598 0 0 -1.63713e-006 
5 1 11.464 0 0 -2.62993e-009 
6 1 14.33 0 0 2.6054e-009 
7 1 17.196 0 0 1.63974e-006 
8 1 20.062 0 0 -8.56422e-005 
9 1 22.9279 0 0 -0.0184983 
10 1 25.7939 0 0 -0.0185856 
ITEM: TIMESTEP
8
ITEM: NUMBER OF ATOMS
10
ITEM: BOX BOUNDS ff ff pp
-10 100
-1 1
-1 1
ITEM: ATOMS id type x y z f_sf[1] 
1 1 0 0 0 0.0186981 
2 1 2.86609 0 0 0.0183581 
3 1 5.732 0 0 0.000113897 
4 1 8.598 0 0 -2.10884e-006 
5 1 11.464 0 0 -4.49423e-009 
6 1 14.33 0 0 4.45282e-009 
7 1 17.196 0 0 2.1133e-006 
8 1 20.062 0 0 -0.000111784 
9 1 22.9279 0 0 -0.0184722 
10 1 25.7939 0 0 -0.0185861 
ITEM: TIMESTEP
9
ITEM: NUMBER OF ATOMS
10
ITEM: BOX BOUNDS ff ff pp
-10 100
-1 1
-1 1
ITEM: ATOMS id type x y z f_sf[1] 
1 1 0 0 0 0.0187283 
2 1 2.86611 0 0 0.0182983 
3 1 5.732 0 0 0.000144002 
4 1 8.598 0 0 -2.62682e-006 
5 1 11.464 0 0 -7.19696e-009 
6 1 14.33 0 0 7.1316e-009 
7 1 17.196 0 0 2.63396e-006 
8 1 20.062 0 0 -0.000141369 
9 1 22.9279 0 0 -0.0184426 
10 1 25.7939 0 0 -0.0185866 
ITEM: TIMESTEP
10
ITEM: NUMBER OF ATOMS
10
ITEM: BOX BOUNDS ff ff pp
-10 100
-1 1
-1 1
ITEM: ATOMS id type x y z f_sf[1] 
1 1 0 0 0 0.018762 
2 1 2.86614 0 0 0.0182316 
3 1 5.732 0 0 0.000177576 
4 1 8.598 0 0 -3.18485e-006 
5 1 11.464 0 0 -1.09512e-008 
6 1 14.33 0 0 1.08533e-008 
7 1 17.196 0 0 3.19571e-006 
8 1 20.062 0 0 -0.00017438 
9 1 22.9279 0 0 -0.0184096 
10 1 25.7939 0 0 -0.0185872 
