#

10 atoms

    2 atom types

-1.0e+001 1.0e+002 xlo xhi
-1.0e+000 1.0e+000 ylo yhi
-1.0e+000 1.0e+000 zlo zhi

Masses

1  63.5460
2  63.5460

Atoms

1 1 0.0000 0 0
2 1 2.8660 0 0
3 1 5.7320 0 0
4 1 8.5980 0 0
5 1 11.4640 0 0
6 1 14.3300 0 0
7 1 17.1960 0 0
8 1 20.0620 0 0
9 1 22.9280 0 0
10 1 25.7940 0 0
