LAMMPS (12 Apr 2013)
# s41.in

dimension	2
atom_style atomic
units metal
boundary f f p

read_data	dynamic_morse_1d_initial_configuration_lammps.txt
  orthogonal box = (-10 -1 -1) to (100 1 1)
  1 by 1 by 1 MPI processor grid
  10 atoms
group left id <= 1
1 atoms in group left
group bound id <= 1
1 atoms in group bound
group mobile subtract all bound
9 atoms in group mobile

newton on
pair_style morse 6.0
pair_coeff * * 0.3429 1.3588 2.866
neighbor 3.0 bin
mass 1 63.546

fix 2d all enforce2d
fix sf all store/force
fix fix bound setforce 0.0 0.0 NULL

dump 1 all custom 1 dump.lammpstrj id type x y z f_sf[1]

fix ther all nve

thermo 1
thermo_style custom step epair ke etotal temp press

timestep 0.001
run 10
Memory usage per processor = 1.78164 Mbytes
Step E_pair KinEng TotEng Temp Press 
       0   -3.1966509            0   -3.1966509            0   -3103.0772 
       1    -3.196651 7.8650395e-008   -3.1966509 0.00010141099   -3103.0599 
       2   -3.1966512 3.1454229e-007   -3.1966509 0.00040556751    -3103.008 
       3   -3.1966516 7.0749792e-007   -3.1966509 0.00091224035   -3102.9214 
       4   -3.1966522 1.2572214e-006   -3.1966509  0.001621048   -3102.8001 
       5   -3.1966529 1.9632991e-006   -3.1966509 0.0025314571   -3102.6442 
       6   -3.1966537 2.8252006e-006   -3.1966509 0.0036427839   -3102.4536 
       7   -3.1966547 3.8422795e-006   -3.1966509 0.0049541947   -3102.2283 
       8   -3.1966559 5.0137746e-006   -3.1966509 0.0064647081   -3101.9684 
       9   -3.1966572 6.3388111e-006   -3.1966509 0.0081731962   -3101.6736 
      10   -3.1966587 7.8164025e-006   -3.1966509  0.010078387   -3101.3441 
Loop time of 0.00200007 on 1 procs for 10 steps with 10 atoms

Pair  time (%) = -6.25849e-007 (-0.0312914)
Neigh time (%) = 0 (0)
Comm  time (%) = -1.2517e-006 (-0.0625828)
Outpt time (%) = 0.00199937 (99.9655)
Other time (%) = 2.56835e-006 (0.128414)

Nlocal:    10 ave 10 max 10 min
Histogram: 1 0 0 0 0 0 0 0 0 0
Nghost:    0 ave 0 max 0 min
Histogram: 1 0 0 0 0 0 0 0 0 0
Neighs:    24 ave 24 max 24 min
Histogram: 1 0 0 0 0 0 0 0 0 0

Total # of neighbors = 24
Ave neighs/atom = 2.4
Neighbor list builds = 0
Dangerous builds = 0


